Title: * spicenetlist
Date: Wed Mar 27 00:32:37  2019
Plotname: AC Analysis
Flags: complex
No. Variables: 8
No. Points: 500
Variables:
	0	frequency	frequency
	1	v(n_12)	voltage
	2	v(n_27)	voltage
	3	v(n_26)	voltage
	4	v(n_28)	voltage
	5	i(i(v_g4))	current
	6	i(i(v_v1))	current
	7	i(i(v_g3))	current
Values:
 0	1.000000000000000e+000,0.000000000000000e+000
	1.966109232911641e-002,-2.906235989149660e-003
	-1.966502914739995e-004,2.906693428124833e-005
	-9.103845731884614e-011,1.350205815734526e-011
	-1.091700129840484e-010,1.560658431823402e-011
	-1.351895162852984e-003,2.189035890291422e-008
	-1.351696592575376e-003,-7.417149299101584e-009
	-1.969034783538113e-007,2.907128701357957e-008

 1	5.006012024048096e+000,0.000000000000000e+000
	3.432669344265384e-001,-3.402390620969141e-001
	-3.433459074552454e-003,3.402962300496112e-003
	-1.585220383415234e-009,1.578679890062009e-009
	-1.949116841942620e-009,1.841763440822511e-009
	-1.355223813959836e-003,3.403469678163028e-006
	-1.351752061017705e-003,-2.905795120045502e-008
	-3.434159310191194e-006,3.403465621658463e-006

 2	9.012024048096192e+000,0.000000000000000e+000
	1.288916336622955e-001,-1.249359667399425e+000
	-1.289870900887532e-003,1.249601488812360e-002
	-5.729313460587634e-010,5.780566495205883e-009
	-1.013824625707792e-009,6.894016964377720e-009
	-1.353198280739442e-003,1.264851527141642e-005
	-1.351867795976371e-003,3.143995081958091e-008
	-1.290173644135383e-006,1.249781419593576e-005

 3	1.301803607214429e+001,0.000000000000000e+000
	-7.102678262243193e-001,-1.565750680985902e+000
	7.102830941089923e-003,1.566120054096405e-002
	3.319474655634422e-009,7.215461206144032e-009
	3.387313459011527e-009,8.917310807574585e-009
	-1.344802946868071e-003,1.600843437923083e-005
	-1.351925613377262e-003,1.695212332088418e-007
	7.103815869936606e-006,1.566335401415163e-005

 4	1.702404809619238e+001,0.000000000000000e+000
	-1.294025351545358e+000,-1.375922408483781e+000
	1.294138128525091e-002,1.376333154348435e-002
	6.009125595541048e-009,6.310225153063908e-009
	6.525350737788062e-009,8.203880229442166e-009
	-1.338919373693342e-003,1.424700803548198e-005
	-1.351930258270526e-003,2.937084548163655e-007
	1.294323064081212e-005,1.376509208284327e-005

 5	2.103006012024048e+001,0.000000000000000e+000
	-1.601870762765299e+000,-1.111150935346773e+000
	1.602045244153654e-002,1.111581144249351e-002
	7.414169116187397e-009,5.068829814022693e-009
	8.214119702709539e-009,7.053310115578289e-009
	-1.335803751935487e-003,1.170464622150732e-005
	-1.351923315631670e-003,3.967370419031358e-007
	1.602274193869328e-005,1.111708244581131e-005

 6	2.503607214428858e+001,0.000000000000000e+000
	-1.767774759401166e+000,-8.784193049468939e-001
	1.767990827965280e-002,8.788686271264759e-003
	8.161261336756480e-009,3.984215738620122e-009
	9.152340923944610e-009,6.057831770364215e-009
	-1.334118718911224e-003,9.472474515357957e-006
	-1.351916255656044e-003,4.889793323507021e-007
	1.768242224762355e-005,8.789523902255886e-006

 7	2.904208416833668e+001,0.000000000000000e+000
	-1.862962785803747e+000,-6.855765026282640e-001
	1.863210722535073e-002,6.860483998503164e-003
	8.582432668247226e-009,3.090123885451894e-009
	9.719868069621691e-009,5.268779609058218e-009
	-1.333148007434040e-003,7.636372610210201e-006
	-1.351910744254000e-003,5.761206641069191e-007
	1.863473775287013e-005,6.860952216378827e-006

 8	3.304809619238477e+001,0.000000000000000e+000
	-1.920291903438584e+000,-5.245971432018868e-001
	1.920567211349103e-002,5.250949398019853e-003
	8.830569739339352e-009,2.347512975218213e-009
	1.009361495301858e-008,4.646508835031196e-009
	-1.332560095579618e-003,6.118427613108794e-006
	-1.351906621022711e-003,6.607181233306213e-007
	1.920836034909027e-005,5.251098437517866e-006

 9	3.705410821643287e+001,0.000000000000000e+000
	-1.955639803587423e+000,-3.873918853748935e-001
	1.955940634909817e-002,3.879181194826365e-003
	8.979342173251011e-009,1.717606181635923e-009
	1.035944423740742e-008,4.148641337764222e-009
	-1.332194441981832e-003,4.838452807956686e-006
	-1.351903521258328e-003,7.439563988908569e-007
	1.956211695627639e-005,3.879048448030863e-006

 10	4.106012024048096e+001,0.000000000000000e+000
	-1.977256727715315e+000,-2.678916312599382e-001
	1.977582652797813e-002,2.684480934083365e-003
	9.066842623213612e-009,1.171378321145833e-009
	1.056197744903883e-008,3.742722501525363e-009
	-1.331967502705450e-003,3.735923016650720e-006
	-1.351901148072999e-003,8.264211404251982e-007
	1.977853632531523e-005,2.684094399141003e-006

 11	4.506613226452906e+001,0.000000000000000e+000
	-1.989733333796049e+000,-1.617813464513549e-001
	1.990084724465089e-002,1.623692264653877e-003
	9.114112590375301e-009,6.882083306974165e-010
	1.072594749524096e-008,3.405374857401625e-009
	-1.331832741034660e-003,2.767672929915423e-006
	-1.351899291293179e-003,9.084212122833826e-007
	1.990353979521740e-005,1.623073366563800e-006

 12	4.907214428857716e+001,0.000000000000000e+000
	-1.995779265299785e+000,-6.599922776642639e-002
	1.996156967313648e-002,6.661924842401912e-004
	9.133453094331537e-009,2.534779363487476e-010
	1.086583949512192e-008,3.119837223974413e-009
	-1.331762666522654e-003,1.903013345288485e-006
	-1.351897805807315e-003,9.901291225356372e-007
	1.996423251962808e-005,6.653580462796390e-007

 13	5.307815631262525e+001,0.000000000000000e+000
	-1.997075694121254e+000,2.165577172208844e-002
	1.997480843092440e-002,-2.100325232648572e-004
	9.132408747500630e-009,-1.433051544197316e-010
	1.099053507295536e-008,2.873944532840950e-009
	-1.331740213837513e-003,1.119850656660446e-006
	-1.351896591440483e-003,1.071646102328254e-006
	1.997743159161209e-005,-2.110689416715427e-007

 14	5.708416833667335e+001,0.000000000000000e+000
	-1.994710654503438e+000,1.027933389588993e-001
	1.995144567049994e-002,-1.021082524133466e-003
	9.115799606092051e-009,-5.097973381537326e-010
	1.110569043674778e-008,2.658712165873324e-009
	-1.331754335002778e-003,4.020082490305023e-007
	-1.351895577931445e-003,1.153034128057709e-006
	1.995402077579623e-005,-1.022309715434168e-006

 15	6.109018036072145e+001,0.000000000000000e+000
	-1.989414140355114e+000,1.786115121447012e-001
	1.989878246743021e-002,-1.778940251645514e-003
	9.086815201401095e-009,-8.516814626301328e-010
	1.121502138067996e-008,2.467379704907343e-009
	-1.331797617213701e-003,-2.625659776881696e-007
	-1.351894715348399e-003,1.234332553527060e-006
	1.990130224131639e-005,-1.780348728909192e-006

 16	6.509619238476954e+001,0.000000000000000e+000
	-1.981691405670847e+000,2.500168083150874e-001
	1.982187206388936e-002,-2.492672828029182e-003
	9.047631904055942e-009,-1.173244211151260e-009
	1.132103081117483e-008,2.294766394777750e-009
	-1.331864930685192e-003,-8.830002220963152e-007
	-1.351893967369884e-003,1.315567170582556e-006
	1.982433000003564e-005,-2.494254379905797e-006

 17	6.910220440881763e+001,0.000000000000000e+000
	-1.971901809180532e+000,3.177055576173540e-001
	1.972430845874446e-002,-3.169245210689832e-003
	8.999775728183548e-009,-1.477767390105973e-009
	1.142543764949406e-008,2.136832304247826e-009
	-1.331952628925797e-003,-1.466312843266491e-006
	-1.351893307441471e-003,1.396755356050803e-006
	1.972669861175240e-005,-3.170992581741894e-006

 18	7.310821643286572e+001,0.000000000000000e+000
	-1.960307196423243e+000,3.822198903175943e-001
	1.960871031747831e-002,-3.814080135785355e-003
	8.944343200729549e-009,-1.767797304525549e-009
	1.152943875636247e-008,1.990375159469570e-009
	-1.332058057052209e-003,-2.017973326707200e-006
	-1.351892715520550e-003,1.477909104720497e-006
	1.961102716423568e-005,-3.815986792792251e-006

 19	7.711422845691381e+001,0.000000000000000e+000
	-1.947102559150572e+000,4.439869527898634e-001
	1.947702762333098e-002,-4.431450330816459e-003
	8.882140052331811e-009,-2.045333317828979e-009
	1.163387391257489e-008,1.852817552542313e-009
	-1.332179240653727e-003,-2.542295537189389e-006
	-1.351892176482741e-003,1.559036876399257e-006
	1.947926596906359e-005,-4.433510289100749e-006

 20	8.112024048096190e+001,0.000000000000000e+000
	-1.932436021440516e+000,5.033468490927110e-001
	1.933074157600937e-002,-5.024757968603617e-003
	8.813770723524421e-009,-2.311962023606007e-009
	1.173933262065192e-008,1.722055195877224e-009
	-1.332314682507405e-003,-3.042718098105208e-006
	-1.351891678637091e-003,1.640144753060148e-006
	1.933289648926897e-005,-5.026965661016141e-006

 21	8.512625250500999e+001,0.000000000000000e+000
	-1.916422198376046e+000,5.605728747194171e-001
	1.917099820379245e-002,-5.596737032827685e-003
	8.739697555329341e-009,-2.568954223542738e-009
	1.184622495074600e-008,1.596347046199277e-009
	-1.332463226976360e-003,-3.522007534852105e-006
	-1.351891213018748e-003,1.721237182919468e-006
	1.917306497059473e-005,-5.599087209569021e-006

 22	8.913226452905808e+001,0.000000000000000e+000
	-1.899151326069402e+000,6.158863924633321e-001
	1.899869968121003e-002,-6.149602097500170e-003
	8.660280797673324e-009,-2.817336061700262e-009
	1.195482957442693e-008,1.474234591695618e-009
	-1.332623966761125e-003,-3.982407691395312e-006
	-1.351890772342827e-003,1.802317469802097e-006
	1.900067377257172e-005,-6.152089748605170e-006

 23	9.313827655310617e+001,0.000000000000000e+000
	-1.880695627186606e+000,6.694679240058757e-001
	1.881456799652970e-002,-6.685159258473338e-003
	8.575806190716805e-009,-3.057941924114115e-009
	1.206532697982756e-008,1.354481758337156e-009
	-1.332796178596441e-003,-4.425751176385828e-006
	-1.351890350992495e-003,1.883388102410090e-006
	1.881644504513566e-005,-6.687779553126326e-006

 24	9.714428857715426e+001,0.000000000000000e+000
	-1.861113829259999e+000,7.214655280907615e-001
	1.861919014362854e-002,-7.204889927042177e-003
	8.486504321898552e-009,-3.291454283740779e-009
	1.217782285301047e-008,1.236029604216339e-009
	-1.332979276990781e-003,-4.853543571057083e-006
	-1.351889944398725e-003,1.964450979389659e-006
	1.862096592685675e-005,-7.207638165668747e-006

 25	1.011503006012024e+002,0.000000000000000e+000
	-1.840454424135786e+000,7.720012054519686e-001
	1.841305072281686e-002,-7.710014888311358e-003
	8.392564433673192e-009,-3.518434070209779e-009
	1.229236480556260e-008,1.117961763884801e-009
	-1.333172781099116e-003,-5.267027820490950e-006
	-1.351889548842499e-003,2.045507565960898e-006
	1.841472115066429e-005,-7.712886464356783e-006

 26	1.051563126252504e+002,0.000000000000000e+000
	-1.818758054042327e+000,8.211758497160099e-001
	1.819655580619368e-002,-8.201543817243076e-003
	8.294144420090340e-009,-3.739344073313719e-009
	1.240895451934768e-008,9.994778070796053e-010
	-1.333376290499412e-003,-5.667234016805196e-006
	-1.351889161341740e-003,2.126559005322010e-006
	1.819811691246910e-005,-8.204534186490020e-006

 27	1.091623246492985e+002,0.000000000000000e+000
	-1.796059281790215e+000,8.690731136237297e-001
	1.797005064312961e-002,-8.680313946350115e-003
	8.191378163215240e-009,-3.954567162693407e-009
	1.252755668273455e-008,8.798724939953985e-010
	-1.333589467008503e-003,-6.055018282991318e-006
	-1.351888779358731e-003,2.207606197849492e-006
	1.797149857930137e-005,-8.683418602132085e-006

 28	1.131683366733466e+002,0.000000000000000e+000
	-1.772387920197947e+000,9.157624567669530e-001
	1.773383295714603e-002,-9.147020547360366e-003
	8.084380984959443e-009,-4.164420606265638e-009
	1.264810564622427e-008,7.585194730841453e-010
	-1.333812021216014e-003,-6.431093428776643e-006
	-1.351888400774749e-003,2.288649859384805e-006
	1.773516398800929e-005,-9.150235000355535e-006

 29	1.171743486973947e+002,0.000000000000000e+000
	-1.747770041747214e+000,9.613015690604272e-001
	1.748816304445981e-002,-9.602241169331588e-003
	7.973253745379527e-009,-4.369167421346759e-009
	1.277051043403256e-008,6.348583612172614e-010
	-1.334043702364240e-003,-6.796053330937842e-006
	-1.351888023981370e-003,2.369690563476002e-006
	1.748937354531372e-005,-9.605560931091071e-006

 30	1.211803607214428e+002,0.000000000000000e+000
	-1.722228753352746e+000,1.005738313291274e+000
	1.723327152320380e-002,-1.004645506684273e-002
	7.858085956534297e-009,-4.569025446270607e-009
	1.289465855475238e-008,5.083844246092349e-010
	-1.334284290094631e-003,-7.150392476703250e-006
	-1.351887647466532e-003,2.450728773641415e-006
	1.723435797812007e-005,-1.004987563629098e-005

 31	1.251863727454909e+002,0.000000000000000e+000
	-1.695784796625338e+000,1.049112293680756e+000
	1.696936533722377e-002,-1.048005888776260e-002
	7.738958172007436e-009,-4.764174644405030e-009
	1.302041892377878e-008,3.786402782626282e-010
	-1.334533588528312e-003,-7.494521746858126e-006
	-1.351887269972136e-003,2.531764866800766e-006
	1.697032433816421e-005,-1.048357574003159e-005

 32	1.291923847695390e+002,0.000000000000000e+000
	-1.668457017132850e+000,1.091456131039438e+000
	1.669663244958112e-002,-1.090337942652224e-002
	7.615943837795158e-009,-4.954763025364728e-009
	1.314764412092273e-008,2.452091659741848e-010
	-1.334791421534416e-003,-7.828781246931043e-006
	-1.351886890516534e-003,2.612799151765860e-006
	1.669746069623615e-005,-1.090698800375569e-005

 33	1.331983967935871e+002,0.000000000000000e+000
	-1.640262734386338e+000,1.132796505813342e+000
	1.641524554309261e-002,-1.131668405595534e-002
	7.489110738766467e-009,-5.140911475389097e-009
	1.327617214473611e-008,1.077094884714830e-010
	-1.335057628805043e-003,-8.153450803902276e-006
	-1.351886508220812e-003,2.693831883070241e-006
	1.641593984320082e-005,-1.132037975976964e-005

 34	1.372044088176352e+002,0.000000000000000e+000
	-1.611218035953964e+000,1.173155016065067e+000
	1.612536496197689e-002,-1.172018930821309e-002
	7.358522138820480e-009,-5.322717720380885e-009
	1.340582778159705e-008,-3.420967478589746e-011
	-1.335332062791467e-003,-8.468758601474433e-006
	-1.351886122229942e-003,2.774863271473432e-006
	1.612592223210971e-005,-1.172396749341201e-005

 35	1.412104208416833e+002,0.000000000000000e+000
	-1.581338013151910e+000,1.212548886796631e+000
	1.582714106913185e-002,-1.211406796887340e-002
	7.224237687280122e-009,-5.500259594114587e-009
	1.353642367671347e-008,-1.808722464545086e-010
	-1.335614586578641e-003,-8.774888319038555e-006
	-1.351885731981931e-003,2.855893492795856e-006
	1.582755833586764e-005,-1.211792393828635e-005

 36	1.452164328657314e+002,0.000000000000000e+000
	-1.550636951457700e+000,1.250991559011454e+000
	1.552071615051976e-002,-1.249845496825792e-002
	7.086314145721368e-009,-5.673597745819770e-009
	1.366776117201535e-008,-3.325781873484495e-010
	-1.335905071593997e-003,-9.071985061572444e-006
	-1.351885336853643e-003,2.936922694233926e-006
	1.552099055184195e-005,-1.250238396848256e-005

 37	1.492224448897794e+002,0.000000000000000e+000
	-1.519128485647868e+000,1.288493180831034e+000
	1.520622596669778e-002,-1.287345229314368e-002
	6.944805976155389e-009,-5.842777892327353e-009
	1.379963095980891e-008,-4.896060069881086e-010
	-1.336203396258746e-003,-9.360160303862310e-006
	-1.351884936392562e-003,3.017950999617786e-006
	1.520635475366625e-005,-1.287744951106793e-005

 38	1.532284569138275e+002,0.000000000000000e+000
	-1.486825727345507e+000,1.325061018327276e+000
	1.488380102836105e-002,-1.323913309550175e-002
	6.799765821773666e-009,-6.007832697812254e-009
	1.393181358928614e-008,-6.522148425302576e-010
	-1.336509444548423e-003,-9.639496026810687e-006
	-1.351884530178608e-003,3.098978513892374e-006
	1.488378156702655e-005,-1.324319365550098e-005

 39	1.572344689378756e+002,0.000000000000000e+000
	-1.453741370939860e+000,1.360699800142386e+000
	1.455356765553024e-002,-1.359554513900088e-002
	6.651244904303310e-009,-6.168783347122654e-009
	1.406407985428249e-008,-8.206461803238755e-010
	-1.336823104844716e-003,-9.910048189027187e-006
	-1.351884117758358e-003,3.180005325464343e-006
	1.455339742898199e-005,-1.359966410060197e-005

 40	1.612404809619237e+002,0.000000000000000e+000
	-1.419887782548957e+000,1.395412007182144e+000
	1.421564886709986e-002,-1.394271369614642e-002
	6.499293356696905e-009,-6.325640865487777e-009
	1.419619108421457e-008,-9.951252790715962e-010
	-1.337144269239003e-003,-1.017184964326116e-005
	-1.351883698859118e-003,3.261031510527853e-006
	1.421532547770796e-005,-1.394688605225582e-005

 41	1.652464929859718e+002,0.000000000000000e+000
	-1.385277075721049e+000,1.429198116491250e+000
	1.387016513771088e-002,-1.428064398715245e-002
	6.343960505892458e-009,-6.478407227105820e-009
	1.432789935529627e-008,-1.175862341617740e-009
	-1.337472832525094e-003,-1.042491259544409e-005
	-1.351883273157582e-003,3.342057133491314e-006
	1.386968630955670e-005,-1.428486466264254e-005

 42	1.692525050100199e+002,0.000000000000000e+000
	-1.349921176828915e+000,1.462056806708303e+000
	1.351723505149156e-002,-1.460932323452908e-002
	6.185295117369950e-009,-6.627076287045008e-009
	1.445894763550396e-008,-1.363053472948433e-009
	-1.337808691667826e-003,-1.066923067442503e-005
	-1.351882840419562e-003,3.423082249844791e-006
	1.351659863285539e-005,-1.461358708518844e-005

 43	1.732585170340680e+002,0.000000000000000e+000
	-1.313831882543904e+000,1.493985131146081e+000
	1.315697587653825e-002,-1.492872239384547e-002
	6.023345610947820e-009,-6.771634564528750e-009
	1.458906987403354e-008,-1.556881454490366e-009
	-1.338151745152872e-003,-1.090478067709467e-005
	-1.351882400440143e-003,3.504106907726309e-006
	1.315617984260430e-005,-1.493302420563016e-005

 44	1.772645290581161e+002,0.000000000000000e+000
	-1.277020911340074e+000,1.524978663469157e+000
	1.278950407964214e-002,-1.523879761039172e-002
	5.858160255520057e-009,-6.912061900635152e-009
	1.471799104394207e-008,-1.757516358794278e-009
	-1.338501892367763e-003,-1.113152403928854e-005
	-1.351881952953877e-003,3.585131147800705e-006
	1.278854653527024e-005,-1.524313209892575e-005

 45	1.812705410821642e+002,0.000000000000000e+000
	-1.239499950640825e+000,1.555031620084880e+000
	1.241493579738773e-002,-1.553949144290037e-002
	5.689787349096117e-009,-7.048332009429984e-009
	1.484542714513189e-008,-1.965116023856611e-009
	-1.338859033299278e-003,-1.134940806937155e-005
	-1.351881497816394e-003,3.666155006069844e-006
	1.241381498018813e-005,-1.554385325326842e-005

 46	1.852765531062123e+002,0.000000000000000e+000
	-1.201280700958371e+000,1.584136962679404e+000
	1.203338727712791e-002,-1.583073388864322e-002
	5.518275389476702e-009,-7.180412938350727e-009
	1.497108517370495e-008,-2.179826402413819e-009
	-1.339223067941709e-003,-1.155836698499299e-005
	-1.351881034865613e-003,3.747178513489740e-006
	1.203210156040214e-005,-1.583511759536967e-005

 47	1.892825651302603e+002,0.000000000000000e+000
	-1.162374918170976e+000,1.612286483780964e+000
	1.164497529928664e-002,-1.611244323872250e-002
	5.343673240099043e-009,-7.308267451094154e-009
	1.509466306289137e-008,-2.401781798346840e-009
	-1.339593895859233e-003,-1.175832277774352e-005
	-1.351880563917074e-003,3.828201696759664e-006
	1.164352319537892e-005,-1.611684334589850e-005

 48	1.932885771543084e+002,0.000000000000000e+000
	-1.122794454922542e+000,1.639470877792026e+000
	1.124981759083684e-002,-1.638452678796963e-002
	5.166030294966744e-009,-7.431853344206206e-009
	1.521584960018944e-008,-2.631104999710837e-009
	-1.339971415894968e-003,-1.194918593116708e-005
	-1.351880084896079e-003,3.909224579254106e-006
	1.124819775448780e-005,-1.638893772969340e-005

 49	1.972945891783565e+002,0.000000000000000e+000
	-1.082551302001981e+000,1.665679799577444e+000
	1.084803323852969e-002,-1.664688142031788e-002
	4.985396646093235e-009,-7.551123706922581e-009
	1.533432432498135e-008,-2.867907315741992e-009
	-1.340355525576961e-003,-1.213085601361306e-005
	-1.351879597665387e-003,3.990247181637971e-006
	1.084624447042937e-005,-1.665129756120547e-005

 50	2.013006012024046e+002,0.000000000000000e+000
	-1.041657630459441e+000,1.690901912412036e+000
	1.043974310944848e-002,-1.689939408767718e-002
	4.801823256508639e-009,-7.666027132489875e-009
	1.544975741068929e-008,-3.112288523402228e-009
	-1.340746120777862e-003,-1.230322216462625e-005
	-1.351879102112820e-003,4.071269521365132e-006
	1.043778435996097e-005,-1.690380972357757e-005

 51	2.053066132264527e+002,0.000000000000000e+000
	-1.000125835135945e+000,1.715124926864240e+000
	1.002507028565545e-002,-1.714194219807074e-002
	4.615362141577676e-009,-7.776507888143482e-009
	1.556180953547246e-008,-3.364336727536069e-009
	-1.341143095302347e-003,-1.246616348755504e-005
	-1.351878598179657e-003,4.152291614355545e-006
	1.002294065870747e-005,-1.714635155696685e-005

 52	2.093126252505008e+002,0.000000000000000e+000
	-9.579685802178521e-001,1.738335632012618e+000
	9.604140519049429e-003,-1.737439392699417e-002
	4.426066561134725e-009,-7.882506050084292e-009
	1.567013174552444e-008,-3.624128137478571e-009
	-1.341546340265902e-003,-1.261954936693554e-005
	-1.351878085699606e-003,4.233313473984277e-006
	9.601839276245552e-006,-1.737879117008479e-005

 53	2.133186372745489e+002,0.000000000000000e+000
	-9.151988473739026e-001,1.760519920251119e+000
	9.177082712016189e-003,-1.759660846454709e-002
	4.233991224744420e-009,-7.983957609142656e-009
	1.577436531519395e-008,-3.891726761930537e-009
	-1.341955743909696e-003,-1.276323971836140e-005
	-1.351877564698661e-003,4.314335112476801e-006
	9.174609276834985e-006,-1.760098768745737e-005

 54	2.173246492985970e+002,0.000000000000000e+000
	-8.718299869875915e-001,1.781662806830578e+000
	8.744029429004091e-003,-1.780843620980338e-002
	4.039192512230653e-009,-8.080794552315275e-009
	1.587414160841326e-008,-4.167184023075930e-009
	-1.342371190676990e-003,-1.289708518649607e-005
	-1.351877034986458e-003,4.395356540129917e-006
	8.741383391346455e-006,-1.781279144411954e-005

 55	2.213306613226451e+002,0.000000000000000e+000
	-8.278757729580346e-001,1.801748445202620e+000
	8.305117443763607e-003,-1.800971892307208e-002
	3.841728711471597e-009,-8.172944924983509e-009
	1.596908194626354e-008,-4.450538290235013e-009
	-1.342792561089129e-003,-1.302092729848557e-005
	-1.351876496582014e-003,4.476377765958071e-006
	8.302298564639606e-006,-1.801404413789203e-005

 56	2.253366733466932e+002,0.000000000000000e+000
	-7.833504615068905e-001,1.820760139174112e+000
	7.860488326633427e-003,-1.820028984611937e-002
	3.641660275326019e-009,-8.260332878352099e-009
	1.605879748593498e-008,-4.741814332808862e-009
	-1.343219730834725e-003,-1.313459858414942e-005
	-1.351875949391847e-003,4.557398798206640e-006
	7.857496543049992e-006,-1.820457894998726e-005

 57	2.293426853707412e+002,0.000000000000000e+000
	-7.382688543948952e-001,1.838680352842142e+000
	7.410289075918139e-003,-1.837997380004167e-002
	3.439050099428075e-009,-8.342878706469780e-009
	1.614288911684393e-008,-5.041022691867222e-009
	-1.343652570321972e-003,-1.323792267325801e-005
	-1.351875393394615e-003,4.638419644000532e-006
	7.407124506031469e-006,-1.838422064311744e-005

 58	2.333486973947893e+002,0.000000000000000e+000
	-6.926463669174038e-001,1.855490719258039e+000
	6.954672797061781e-003,-1.854858727026305e-002
	3.233963822456148e-009,-8.420498877092337e-009
	1.622094738024221e-008,-5.348158969453946e-009
	-1.344090943844218e-003,-1.333071437850893e-005
	-1.351874828486049e-003,4.719440309078742e-006
	6.951335745580239e-006,-1.855278564654350e-005

 59	2.373547094188374e+002,0.000000000000000e+000
	-6.464991010129159e-001,1.871172048762894e+000
	6.493799432969631e-003,-1.870593848807067e-002
	3.026470150341793e-009,-8.493106060619886e-009
	1.629255241930108e-008,-5.663203034534415e-009
	-1.344534709081985e-003,-1.341277977130470e-005
	-1.351874254711040e-003,4.800460799451559e-006
	6.490290396765346e-006,-1.871008213822319e-005

 60	2.413607214428855e+002,0.000000000000000e+000
	-5.998439237795806e-001,1.885704337942862e+000
	6.027836548442063e-003,-1.885182751815951e-002
	2.816641205727110e-009,-8.560609161364711e-009
	1.635727396735338e-008,-5.986118144482883e-009
	-1.344983716006117e-003,-1.348391626581383e-005
	-1.351873671950427e-003,4.881481119243640e-006
	6.024156222448978e-006,-1.885591013244591e-005

 61	2.453667334669336e+002,0.000000000000000e+000
	-5.526985516515207e-001,1.899066780170304e+000
	5.556960171255320e-003,-1.898604636183545e-002
	2.604552903801635e-009,-8.622913355488162e-009
	1.641467138274808e-008,-6.316849981115883e-009
	-1.345437806280232e-003,-1.354391271234994e-005
	-1.351873080163511e-003,4.962501272865253e-006
	5.553109454588680e-006,-1.899006158349742e-005

 62	2.493727454909817e+002,0.000000000000000e+000
	-5.050816404374248e-001,1.911237778723445e+000
	5.081355691932205e-003,-1.910837908579305e-002
	2.390285355442203e-009,-8.679920140065793e-009
	1.646429373958586e-008,-6.655325600519980e-009
	-1.345896812288958e-003,-1.359254951798533e-005
	-1.351872479314908e-003,5.043521263638697e-006
	5.077335694288611e-006,-1.911232051475277e-005

 63	2.533787575150298e+002,0.000000000000000e+000
	-4.570128813669092e-001,1.922194963512045e+000
	4.601218823678507e-003,-1.921860198673191e-002
	2.173923298337538e-009,-8.731527397901324e-009
	1.650567998446935e-008,-7.001452296314419e-009
	-1.346360556219166e-003,-1.362959879839428e-005
	-1.351871869414632e-003,5.124541094787426e-006
	4.597030871943906e-006,-1.922246318380861e-005

 64	2.573847695390779e+002,0.000000000000000e+000
	-4.085131032246242e-001,1.931915212477957e+000
	4.116756623308396e-003,-1.931648380249134e-002
	1.955556556497276e-009,-8.777629482900475e-009
	1.653835917030232e-008,-7.355116376536336e-009
	-1.346828848967404e-003,-1.365482457577754e-005
	-1.351871250445655e-003,5.205560768753995e-006
	4.112402268456587e-006,-1.932025829401243e-005

 65	2.613907815631260e+002,0.000000000000000e+000
	-3.596043805756784e-001,1.940374678785466e+000
	3.628188573220797e-003,-1.940178598084321e-002
	1.735280528213755e-009,-8.818117331029629e-009
	1.656185077909486e-008,-7.716181855056122e-009
	-1.347301489006741e-003,-1.366798303051346e-005
	-1.351870622312486e-003,5.286580287968074e-006
	3.623669597428945e-006,-1.940546726386336e-005

 66	2.653967935871741e+002,0.000000000000000e+000
	-3.103101479982255e-001,1.947548824965921e+000
	3.135747723614109e-003,-1.947426301758199e-002
	1.513196702161513e-009,-8.852878602115393e-009
	1.657566514666986e-008,-8.084489059333209e-009
	-1.347778261456471e-003,-1.366882282108816e-005
	-1.351869985053651e-003,5.367599654267632e-006
	3.131066147571733e-006,-1.947784456560038e-005

 67	2.694028056112222e+002,0.000000000000000e+000
	-2.606553201375340e-001,1.953412465231694e+000
	2.639681893114547e-003,-1.953366287605674e-002
	1.289413200872975e-009,-8.881797857977996e-009
	1.657930400308995e-008,-8.459853157425342e-009
	-1.348258936638995e-003,-1.365708548236800e-005
	-1.351869338600882e-003,5.448618868710778e-006
	2.634839983557291e-006,-1.953713814540364e-005

 68	2.734088176352703e+002,0.000000000000000e+000
	-2.106664172800499e-001,1.957939817224893e+000
	2.140254924838209e-003,-1.957972750079735e-002
	1.064045350317410e-009,-8.904756782629278e-009
	1.657226114352645e-008,-8.842062608481386e-009
	-1.348743268973053e-003,-1.363250591369653e-005
	-1.351868682931575e-003,5.529637933270528e-006
	2.135255202248880e-006,-1.958308993763458e-005

 69	2.774148296593185e+002,0.000000000000000e+000
	-1.603716960138421e-001,1.961104564513191e+000
	1.637747993588844e-003,-1.961219343835853e-002
	8.372162737240075e-010,-8.921634450490259e-009
	1.655402324513371e-008,-9.230877542494459e-009
	-1.349230995641218e-003,-1.359481297504033e-005
	-1.351868018048436e-003,5.610656848772516e-006
	1.632593240030357e-006,-1.961543648653535e-005

 70	2.814208416833666e+002,0.000000000000000e+000
	-1.098012843925812e-001,1.962879931186476e+000
	1.132460958403946e-003,-1.963079257892304e-002
	6.090575071256432e-010,-8.932307648783804e-009
	1.652407084625048e-008,-9.626028076881449e-009
	-1.349721835180739e-003,-1.354373019840010e-005
	-1.351867343930112e-003,5.691675615844201e-006
	1.127154225455544e-006,-1.963390968855423e-005

 71	2.854268537074147e+002,0.000000000000000e+000
	-5.898732085265403e-002,1.963238769940756e+000
	6.247137529893072e-004,-1.963525303253712e-002
	3.797096333517263e-010,-8.936651260422346e-009
	1.648187950488747e-008,-1.002721257950189e-008
	-1.350215486095550e-003,-1.347897663160569e-005
	-1.351866660543491e-003,5.772694235435722e-006
	6.192583697340235e-007,-1.963823766939274e-005

 72	2.894328657314628e+002,0.000000000000000e+000
	-7.964095946564765e-003,1.962153665056253e+000
	1.148478047201845e-004,-1.962530015405889e-002
	1.493229303632507e-010,-8.934538713819793e-009
	1.642692115393073e-008,-1.043409589003785e-008
	-1.350711625444003e-003,-1.340026782998225e-005
	-1.351865967863462e-003,5.853712707543183e-006
	1.092473857280516e-007,-1.962814580991657e-005

 73	2.934388777555109e+002,0.000000000000000e+000
	4.323180425019376e-002,1.959597051681083e+000
	-3.967725291695980e-004,-1.960065773095482e-002
	-8.194197110149740e-011,-8.925842506099570e-009
	1.635866567075609e-008,-1.084630751423946e-008
	-1.351209907448603e-003,-1.330731700575455e-005
	-1.351865265935477e-003,5.934731032668110e-006
	-4.025140759323762e-007,-1.960335793504756e-005

 74	2.974448897795591e+002,0.000000000000000e+000
	9.456135442680726e-002,1.955541352816262e+000
	-9.097585218395952e-004,-1.956104934792442e-002
	-3.139134266163313e-010,-8.910434806119838e-009
	1.627658267894266e-008,-1.126343980838842e-008
	-1.351709961840803e-003,-1.319983635447552e-005
	-1.351864554680860e-003,6.015749210827712e-006
	-9.156369872450895e-007,-1.956359767918875e-005

 75	3.014509018036072e+002,0.000000000000000e+000
	1.459829476313380e-001,1.949959135356900e+000
	-1.423695649602563e-003,-1.950619994193578e-002
	-5.464081210385901e-010,-8.888188143579252e-009
	1.618014359944814e-008,-1.168504617444613e-008
	-1.352211392601041e-003,-1.307753856871824e-005
	-1.351863834089546e-003,6.096767241681005e-006
	-1.429706515838286e-006,-1.950859004254198e-005

 76	3.054569138276553e+002,0.000000000000000e+000
	1.974522560445744e-001,1.942823286474234e+000
	-1.938142195869966e-003,-1.943583756055730e-002
	-7.792304236915460e-010,-8.858976190174000e-009
	1.606882396789221e-008,-1.211063928970988e-008