Title: * spicenetlist
Date: Sat Apr 13 13:18:41  2019
Plotname: AC Analysis
Flags: complex
No. Variables: 8
No. Points: 500
Variables:
	0	frequency	frequency
	1	v(n_12)	voltage
	2	v(n_27)	voltage
	3	v(n_26)	voltage
	4	v(n_28)	voltage
	5	i(i(v_g4))	current
	6	i(i(v_v1))	current
	7	i(i(v_g3))	current
Values:
 0	1.000000000000000e+000,0.000000000000000e+000
	1.966109232911644e-002,-2.906235989149662e-003
	-1.966502914739995e-004,2.906693428124837e-005
	-9.103845731884632e-011,1.350205815734530e-011
	-1.091700129840486e-010,1.560658431823406e-011
	-1.351895247343667e-003,2.189036086170338e-008
	-1.351696677066060e-003,-7.417147340309895e-009
	-1.969034783538995e-007,2.907128701359470e-008

 1	5.006012024048096e+000,0.000000000000000e+000
	3.432669344265386e-001,-3.402390620969137e-001
	-3.433459074552452e-003,3.402962300496110e-003
	-1.585220383415234e-009,1.578679890062009e-009
	-1.949116841942621e-009,1.841763440822511e-009
	-1.355223898466993e-003,3.403469687966516e-006
	-1.351752145524860e-003,-2.905794139666977e-008
	-3.434159310190717e-006,3.403465621656589e-006

 2	9.012024048096192e+000,0.000000000000000e+000
	1.288916336622937e-001,-1.249359667399415e+000
	-1.289870900887517e-003,1.249601488812351e-002
	-5.729313460587566e-010,5.780566495205847e-009
	-1.013824625707782e-009,6.894016964377678e-009
	-1.353198365232385e-003,1.264851528906375e-005
	-1.351867880469315e-003,3.143996846799439e-008
	-1.290173644135673e-006,1.249781419593750e-005

 3	1.301803607214429e+001,0.000000000000000e+000
	-7.102678262243153e-001,-1.565750680985895e+000
	7.102830941089883e-003,1.566120054096398e-002
	3.319474655634405e-009,7.215461206144004e-009
	3.387313459011509e-009,8.917310807574550e-009
	-1.344803031374094e-003,1.600843440473177e-005
	-1.351925697883287e-003,1.695212587099587e-007
	7.103815869937396e-006,1.566335401415457e-005

 4	1.702404809619238e+001,0.000000000000000e+000
	-1.294025351545358e+000,-1.375922408483781e+000
	1.294138128525091e-002,1.376333154348435e-002
	6.009125595541059e-009,6.310225153063921e-009
	6.525350737788073e-009,8.203880229442182e-009
	-1.338919458188545e-003,1.424700806880920e-005
	-1.351930342765732e-003,2.937084881408604e-007
	1.294323064080549e-005,1.376509208283486e-005

 5	2.103006012024048e+001,0.000000000000000e+000
	-1.601870762765293e+000,-1.111150935346772e+000
	1.602045244153649e-002,1.111581144249349e-002
	7.414169116187384e-009,5.068829814022697e-009
	8.214119702709523e-009,7.053310115578292e-009
	-1.335803836429560e-003,1.170464626269132e-005
	-1.351923400125746e-003,3.967370830907426e-007
	1.602274193870559e-005,1.111708244582350e-005

 6	2.503607214428858e+001,0.000000000000000e+000
	-1.767774759401154e+000,-8.784193049468891e-001
	1.767990827965268e-002,8.788686271264721e-003
	8.161261336756444e-009,3.984215738620110e-009
	9.152340923944567e-009,6.057831770364195e-009
	-1.334118803417252e-003,9.472474564402203e-006
	-1.351916340162071e-003,4.889793813973929e-007
	1.768242224762733e-005,8.789523902253980e-006

 7	2.904208416833668e+001,0.000000000000000e+000
	-1.862962785803738e+000,-6.855765026282630e-001
	1.863210722535065e-002,6.860483998503151e-003
	8.582432668247201e-009,3.090123885451896e-009
	9.719868069621661e-009,5.268779609058217e-009
	-1.333148091953146e-003,7.636372667101925e-006
	-1.351910828773109e-003,5.761207209990366e-007
	1.863473775287600e-005,6.860952216379949e-006

 8	3.304809619238477e+001,0.000000000000000e+000
	-1.920291903438579e+000,-5.245971432018877e-001
	1.920567211349098e-002,5.250949398019851e-003
	8.830569739339342e-009,2.347512975218214e-009
	1.009361495301857e-008,4.646508835031194e-009
	-1.332560180099855e-003,6.118427677852563e-006
	-1.351906705542951e-003,6.607181880728694e-007
	1.920836034908522e-005,5.251098437515699e-006

 9	3.705410821643287e+001,0.000000000000000e+000
	-1.955639803587417e+000,-3.873918853748929e-001
	1.955940634909810e-002,3.879181194826353e-003
	8.979342173250988e-009,1.717606181635921e-009
	1.035944423740739e-008,4.148641337764215e-009
	-1.332194526461703e-003,4.838452880529948e-006
	-1.351903605738197e-003,7.439564714636869e-007
	1.956211695627638e-005,3.879048448028877e-006

 10	4.106012024048096e+001,0.000000000000000e+000
	-1.977256727715311e+000,-2.678916312599369e-001
	1.977582652797810e-002,2.684480934083365e-003
	9.066842623213608e-009,1.171378321145836e-009
	1.056197744903883e-008,3.742722501525366e-009
	-1.331967587225686e-003,3.735923097077904e-006
	-1.351901232593242e-003,8.264212208528491e-007
	1.977853632529973e-005,2.684094399141237e-006

 11	4.506613226452906e+001,0.000000000000000e+000
	-1.989733333796041e+000,-1.617813464513546e-001
	1.990084724465081e-002,1.623692264653880e-003
	9.114112590375285e-009,6.882083306974157e-010
	1.072594749524094e-008,3.405374857401619e-009
	-1.331832825527609e-003,2.767673018145871e-006
	-1.351899375786132e-003,9.084213005133680e-007
	1.990353979521564e-005,1.623073366564410e-006

 12	4.907214428857716e+001,0.000000000000000e+000
	-1.995779265299777e+000,-6.599922776642690e-002
	1.996156967313642e-002,6.661924842401934e-004
	9.133453094331514e-009,2.534779363487551e-010
	1.086583949512189e-008,3.119837223974415e-009
	-1.331762751027552e-003,1.903013441421039e-006
	-1.351897890312220e-003,9.901292186681734e-007
	1.996423251961600e-005,6.653580462800330e-007

 13	5.307815631262525e+001,0.000000000000000e+000
	-1.997075694121246e+000,2.165577172208866e-002
	1.997480843092431e-002,-2.100325232648574e-004
	9.132408747500598e-009,-1.433051544197308e-010
	1.099053507295532e-008,2.873944532840940e-009
	-1.331740298317390e-003,1.119850760625355e-006
	-1.351896675920358e-003,1.071646206293249e-006
	1.997743159159657e-005,-2.110689416714723e-007

 14	5.708416833667335e+001,0.000000000000000e+000
	-1.994710654503437e+000,1.027933389588979e-001
	1.995144567049993e-002,-1.021082524133465e-003
	9.115799606092057e-009,-5.097973381537289e-010
	1.110569043674779e-008,2.658712165873330e-009
	-1.331754419511080e-003,4.020083608175933e-007
	-1.351895662439744e-003,1.153034239845230e-006
	1.995402077580236e-005,-1.022309715433524e-006

 15	6.109018036072145e+001,0.000000000000000e+000
	-1.989414140355108e+000,1.786115121447018e-001
	1.989878246743014e-002,-1.778940251645502e-003
	9.086815201401083e-009,-8.516814626301345e-010
	1.121502138067994e-008,2.467379704907336e-009
	-1.331797701706661e-003,-2.625658580381459e-007
	-1.351894799841359e-003,1.234332673176699e-006
	1.990130224131461e-005,-1.780348728910581e-006

 16	6.509619238476954e+001,0.000000000000000e+000
	-1.981691405670840e+000,2.500168083150872e-001
	1.982187206388929e-002,-2.492672828029167e-003
	9.047631904055918e-009,-1.173244211151256e-009
	1.132103081117480e-008,2.294766394777745e-009
	-1.331865015205451e-003,-8.830000945841836e-007
	-1.351894051890137e-003,1.315567298093672e-006
	1.982433000002919e-005,-2.494254379905351e-006

 17	6.910220440881763e+001,0.000000000000000e+000
	-1.971901809180523e+000,3.177055576173531e-001
	1.972430845874438e-002,-3.169245210689820e-003
	8.999775728183517e-009,-1.477767390105972e-009
	1.142543764949402e-008,2.136832304247815e-009
	-1.331952713418763e-003,-1.466312707945100e-006
	-1.351893391934435e-003,1.396755491372611e-006
	1.972669861174703e-005,-3.170992581742284e-006

 18	7.310821643286572e+001,0.000000000000000e+000
	-1.960307196423244e+000,3.822198903175941e-001
	1.960871031747831e-002,-3.814080135785354e-003
	8.944343200729563e-009,-1.767797304525551e-009
	1.152943875636248e-008,1.990375159469572e-009
	-1.332058141571343e-003,-2.017973183511044e-006
	-1.351892800039677e-003,1.477909247916793e-006
	1.961102716424220e-005,-3.815986792792629e-006

 19	7.711422845691381e+001,0.000000000000000e+000
	-1.947102559150561e+000,4.439869527898628e-001
	1.947702762333087e-002,-4.431450330816437e-003
	8.882140052331766e-009,-2.045333317828971e-009
	1.163387391257483e-008,1.852817552542301e-009
	-1.332179325158650e-003,-2.542295386144112e-006
	-1.351892260987660e-003,1.559037027444625e-006
	1.947926596905177e-005,-4.433510289097588e-006

 20	8.112024048096190e+001,0.000000000000000e+000
	-1.932436021440514e+000,5.033468490927093e-001
	1.933074157600934e-002,-5.024757968603607e-003
	8.813770723524418e-009,-2.311962023606003e-009
	1.173933262065192e-008,1.722055195877228e-009
	-1.332314767040755e-003,-3.042717939182934e-006
	-1.351891763170434e-003,1.640144911982344e-006
	1.933289648926988e-005,-5.026965661018670e-006

 21	8.512625250500999e+001,0.000000000000000e+000
	-1.916422198376037e+000,5.605728747194149e-001
	1.917099820379236e-002,-5.596737032827661e-003
	8.739697555329314e-009,-2.568954223542732e-009
	1.184622495074597e-008,1.596347046199270e-009
	-1.332463311481290e-003,-3.522007368136963e-006
	-1.351891297523672e-003,1.721237349635226e-006
	1.917306497059036e-005,-5.599087209570305e-006

 22	8.913226452905808e+001,0.000000000000000e+000
	-1.899151326069394e+000,6.158863924633306e-001
	1.899869968120996e-002,-6.149602097500154e-003
	8.660280797673306e-009,-2.817336061700258e-009
	1.195482957442690e-008,1.474234591695612e-009
	-1.332624051254098e-003,-3.982407516837865e-006
	-1.351890856835804e-003,1.802317644359092e-006
	1.900067377258376e-005,-6.152089748603472e-006

 23	9.313827655310617e+001,0.000000000000000e+000
	-1.880695627186599e+000,6.694679240058743e-001
	1.881456799652961e-002,-6.685159258473314e-003
	8.575806190716783e-009,-3.057941924114112e-009
	1.206532697982753e-008,1.354481758337146e-009
	-1.332796263089423e-003,-4.425750993993443e-006
	-1.351890435485474e-003,1.883388284803425e-006
	1.881644504513898e-005,-6.687779553129888e-006

 24	9.714428857715426e+001,0.000000000000000e+000
	-1.861113829259996e+000,7.214655280907599e-001
	1.861919014362851e-002,-7.204889927042165e-003
	8.486504321898542e-009,-3.291454283740779e-009
	1.217782285301046e-008,1.236029604216333e-009
	-1.332979361511058e-003,-4.853543380762296e-006
	-1.351890028918999e-003,1.964451169684055e-006
	1.862096592686497e-005,-7.207638165667838e-006

 25	1.011503006012024e+002,0.000000000000000e+000
	-1.840454424135785e+000,7.720012054519669e-001
	1.841305072281682e-002,-7.710014888311346e-003
	8.392564433673191e-009,-3.518434070209783e-009
	1.229236480556261e-008,1.117961763884796e-009
	-1.333172865593230e-003,-5.267027622398395e-006
	-1.351889633336615e-003,2.045507764055374e-006
	1.841472115067207e-005,-7.712886464363008e-006

 26	1.051563126252504e+002,0.000000000000000e+000
	-1.818758054042317e+000,8.211758497160063e-001
	1.819655580619359e-002,-8.201543817243050e-003
	8.294144420090304e-009,-3.739344073313710e-009
	1.240895451934763e-008,9.994778070795920e-010
	-1.333376375019689e-003,-5.667233810779348e-006
	-1.351889245862021e-003,2.126559211343455e-006
	1.819811691247284e-005,-8.204534186494910e-006

 27	1.091623246492985e+002,0.000000000000000e+000
	-1.796059281790212e+000,8.690731136237299e-001
	1.797005064312958e-002,-8.680313946350106e-003
	8.191378163215239e-009,-3.954567162693412e-009
	1.252755668273455e-008,8.798724939953910e-010
	-1.333589551501496e-003,-6.055018069154403e-006
	-1.351888863851724e-003,2.207606411682314e-006
	1.797149857929835e-005,-8.683418602138321e-006

 28	1.131683366733466e+002,0.000000000000000e+000
	-1.772387920197946e+000,9.157624567669552e-001
	1.773383295714603e-002,-9.147020547360371e-003
	8.084380984959453e-009,-4.164420606265644e-009
	1.264810564622428e-008,7.585194730841436e-010
	-1.333812105722094e-003,-6.431093207138856e-006
	-1.351888485280826e-003,2.288650081023292e-006
	1.773516398800918e-005,-9.150235000356381e-006

 29	1.171743486973947e+002,0.000000000000000e+000
	-1.747770041747211e+000,9.613015690604262e-001
	1.748816304445977e-002,-9.602241169331572e-003
	7.973253745379522e-009,-4.369167421346763e-009
	1.277051043403256e-008,6.348583612172523e-010
	-1.334043786858370e-003,-6.796053101486648e-006
	-1.351888108475501e-003,2.369690792927982e-006
	1.748937354531353e-005,-9.605560931097331e-006

 30	1.211803607214428e+002,0.000000000000000e+000
	-1.722228753352739e+000,1.005738313291270e+000
	1.723327152320373e-002,-1.004645506684269e-002
	7.858085956534275e-009,-4.569025446270597e-009
	1.289465855475235e-008,5.083844246092300e-010
	-1.334284374613804e-003,-7.150392239338981e-006
	-1.351887731985698e-003,2.450729011003901e-006
	1.723435797812322e-005,-1.004987563628957e-005

 31	1.251863727454909e+002,0.000000000000000e+000
	-1.695784796625334e+000,1.049112293680755e+000
	1.696936533722374e-002,-1.048005888776259e-002
	7.738958172007431e-009,-4.764174644405031e-009
	1.302041892377878e-008,3.786402782626240e-010
	-1.334533673034405e-003,-7.494521501633484e-006
	-1.351887354478225e-003,2.531765112028327e-006
	1.697032433816410e-005,-1.048357574001317e-005

 32	1.291923847695390e+002,0.000000000000000e+000
	-1.668457017132849e+000,1.091456131039438e+000
	1.669663244958109e-002,-1.090337942652223e-002
	7.615943837795170e-009,-4.954763025364740e-009
	1.314764412092275e-008,2.452091659741790e-010
	-1.334791506053589e-003,-7.828780993814496e-006
	-1.351886975035708e-003,2.612799404882018e-006
	1.669746069625302e-005,-1.090698800376221e-005

 33	1.331983967935871e+002,0.000000000000000e+000
	-1.640262734386341e+000,1.132796505813343e+000
	1.641524554309264e-002,-1.131668405595536e-002
	7.489110738766487e-009,-5.140911475389110e-009
	1.327617214473615e-008,1.077094884714838e-010
	-1.335057713299188e-003,-8.153450543085604e-006
	-1.351886592714958e-003,2.693832143891602e-006
	1.641593984319761e-005,-1.132037975976024e-005

 34	1.372044088176352e+002,0.000000000000000e+000
	-1.611218035953962e+000,1.173155016065065e+000
	1.612536496197687e-002,-1.172018930821308e-002
	7.358522138820476e-009,-5.322717720380883e-009
	1.340582778159705e-008,-3.420967478589829e-011
	-1.335332147311772e-003,-8.468758332710040e-006
	-1.351886206750255e-003,2.774863540236581e-006
	1.612592223211075e-005,-1.172396749341743e-005

 35	1.412104208416833e+002,0.000000000000000e+000
	-1.581338013151905e+000,1.212548886796629e+000
	1.582714106913177e-002,-1.211406796887336e-002
	7.224237687280104e-009,-5.500259594114585e-009
	1.353642367671345e-008,-1.808722464545210e-010
	-1.335614671098963e-003,-8.774888042410728e-006
	-1.351885816502248e-003,2.855893769422034e-006
	1.582755833587157e-005,-1.211792393830385e-005

 36	1.452164328657314e+002,0.000000000000000e+000
	-1.550636951457691e+000,1.250991559011449e+000
	1.552071615051966e-002,-1.249845496825786e-002
	7.086314145721342e-009,-5.673597745819757e-009
	1.366776117201530e-008,-3.325781873484586e-010
	-1.335905156114317e-003,-9.071984777111375e-006
	-1.351885421373966e-003,2.936922978695378e-006
	1.552099055183756e-005,-1.250238396847500e-005

 37	1.492224448897794e+002,0.000000000000000e+000
	-1.519128485647858e+000,1.288493180831029e+000
	1.520622596669765e-002,-1.287345229314362e-002
	6.944805976155353e-009,-5.842777892327344e-009
	1.379963095980886e-008,-4.896060069881309e-010
	-1.336203480763731e-003,-9.360160011560605e-006
	-1.351885020897548e-003,3.017951291914008e-006
	1.520635475366140e-005,-1.287744951108088e-005

 38	1.532284569138275e+002,0.000000000000000e+000
	-1.486825727345502e+000,1.325061018327272e+000
	1.488380102836101e-002,-1.323913309550172e-002
	6.799765821773649e-009,-6.007832697812242e-009
	1.393181358928611e-008,-6.522148425302593e-010
	-1.336509529041469e-003,-9.639495726699823e-006
	-1.351884614671648e-003,3.098978814003249e-006
	1.488378156703471e-005,-1.324319365550122e-005

 39	1.572344689378756e+002,0.000000000000000e+000
	-1.453741370939854e+000,1.360699800142382e+000
	1.455356765553017e-002,-1.359554513900084e-002
	6.651244904303291e-009,-6.168783347122652e-009
	1.406407985428246e-008,-8.206461803238913e-010
	-1.336823189348583e-003,-9.910047880952628e-006
	-1.351884202262224e-003,3.180005633537329e-006
	1.455339742897563e-005,-1.359966410059138e-005

 40	1.612404809619237e+002,0.000000000000000e+000
	-1.419887782548956e+000,1.395412007182145e+000
	1.421564886709983e-002,-1.394271369614641e-002
	6.499293356696900e-009,-6.325640865487779e-009
	1.419619108421456e-008,-9.951252790716045e-010
	-1.337144353718971e-003,-1.017184932750086e-005
	-1.351883783339088e-003,3.261031826284393e-006
	1.421532547771543e-005,-1.394688605226002e-005

 41	1.652464929859718e+002,0.000000000000000e+000
	-1.385277075721045e+000,1.429198116491250e+000
	1.387016513771084e-002,-1.428064398715243e-002
	6.343960505892450e-009,-6.478407227105819e-009
	1.432789935529625e-008,-1.175862341617749e-009
	-1.337472916989723e-003,-1.042491227185393e-005
	-1.351883357622217e-003,3.342057457082492e-006
	1.386968630955984e-005,-1.428486466264259e-005

 42	1.692525050100199e+002,0.000000000000000e+000
	-1.349921176828906e+000,1.462056806708297e+000
	1.351723505149150e-002,-1.460932323452903e-002
	6.185295117369928e-009,-6.627076287044992e-009
	1.445894763550391e-008,-1.363053472948438e-009
	-1.337808776172835e-003,-1.066923034283975e-005
	-1.351882924924574e-003,3.423082581430106e-006
	1.351659863285768e-005,-1.461358708518653e-005

 43	1.732585170340680e+002,0.000000000000000e+000
	-1.313831882543901e+000,1.493985131146081e+000
	1.315697587653821e-002,-1.492872239384546e-002
	6.023345610947810e-009,-6.771634564528759e-009
	1.458906987403354e-008,-1.556881454490388e-009
	-1.338151829632858e-003,-1.090478033774529e-005
	-1.351882484920129e-003,3.504107247074386e-006
	1.315617984260472e-005,-1.493302420563293e-005

 44	1.772645290581161e+002,0.000000000000000e+000
	-1.277020911340071e+000,1.524978663469157e+000
	1.278950407964210e-002,-1.523879761039169e-002
	5.858160255520046e-009,-6.912061900635150e-009
	1.471799104394206e-008,-1.757516358794289e-009
	-1.338501976846626e-003,-1.113152369211104e-005
	-1.351882037432739e-003,3.585131494981202e-006
	1.278854653527279e-005,-1.524313209892958e-005

 45	1.812705410821642e+002,0.000000000000000e+000
	-1.239499950640819e+000,1.555031620084879e+000
	1.241493579738766e-002,-1.553949144290035e-002
	5.689787349096086e-009,-7.048332009429975e-009
	1.484542714513184e-008,-1.965116023856635e-009
	-1.338859117791221e-003,-1.134940771427870e-005
	-1.351881582308343e-003,3.666155361163875e-006
	1.241381498017788e-005,-1.554385325328421e-005

 46	1.852765531062123e+002,0.000000000000000e+000
	-1.201280700958367e+000,1.584136962679402e+000
	1.203338727712788e-002,-1.583073388864321e-002
	5.518275389476694e-009,-7.180412938350730e-009
	1.497108517370494e-008,-2.179826402413833e-009
	-1.339223152406369e-003,-1.155836662217148e-005
	-1.351881119330276e-003,3.747178876315204e-006
	1.203210156040772e-005,-1.583511759537031e-005

 47	1.892825651302603e+002,0.000000000000000e+000
	-1.162374918170965e+000,1.612286483780955e+000
	1.164497529928652e-002,-1.611244323872241e-002
	5.343673240098999e-009,-7.308267451094123e-009
	1.509466306289128e-008,-2.401781798346857e-009
	-1.339593980378486e-003,-1.175832240692407e-005
	-1.351880648436327e-003,3.828202067578596e-006
	1.164352319538360e-005,-1.611684334589306e-005

 48	1.932885771543084e+002,0.000000000000000e+000
	-1.122794454922539e+000,1.639470877792026e+000
	1.124981759083681e-002,-1.638452678796961e-002
	5.166030294966734e-009,-7.431853344206208e-009
	1.521584960018943e-008,-2.631104999710853e-009
	-1.339971500400017e-003,-1.194918555248047e-005
	-1.351880169401127e-003,3.909224957936013e-006
	1.124819775449012e-005,-1.638893772970722e-005

 49	1.972945891783565e+002,0.000000000000000e+000
	-1.082551302001976e+000,1.665679799577441e+000
	1.084803323852964e-002,-1.664688142031785e-002
	4.985396646093222e-009,-7.551123706922583e-009
	1.533432432498134e-008,-2.867907315742010e-009
	-1.340355610111568e-003,-1.213085562720316e-005
	-1.351879682199994e-003,3.990247568049433e-006
	1.084624447042840e-005,-1.665129756120572e-005

 50	2.013006012024046e+002,0.000000000000000e+000
	-1.041657630459436e+000,1.690901912412031e+000
	1.043974310944842e-002,-1.689939408767712e-002
	4.801823256508622e-009,-7.666027132489865e-009
	1.544975741068925e-008,-3.112288523402235e-009
	-1.340746205269842e-003,-1.230322177032830e-005
	-1.351879186604801e-003,4.071269915667395e-006
	1.043778435996682e-005,-1.690380972357981e-005

 51	2.053066132264527e+002,0.000000000000000e+000
	-1.000125835135947e+000,1.715124926864241e+000
	1.002507028565546e-002,-1.714194219807075e-002
	4.615362141577688e-009,-7.776507888143500e-009
	1.556180953547250e-008,-3.364336727536076e-009
	-1.341143179808546e-003,-1.246616308541295e-005
	-1.351878682685856e-003,4.152292016493102e-006
	1.002294065871436e-005,-1.714635155697576e-005

 52	2.093126252505008e+002,0.000000000000000e+000
	-9.579685802178466e-001,1.738335632012614e+000
	9.604140519049381e-003,-1.737439392699412e-002
	4.426066561134706e-009,-7.882506050084284e-009
	1.567013174552440e-008,-3.624128137478587e-009
	-1.341546424785188e-003,-1.261954895696549e-005
	-1.351878170218892e-003,4.233313883955605e-006
	9.601839276244490e-006,-1.737879117008071e-005

 53	2.133186372745489e+002,0.000000000000000e+000
	-9.151988473738983e-001,1.760519920251115e+000
	9.177082712016140e-003,-1.759660846454704e-002
	4.233991224744403e-009,-7.983957609142644e-009
	1.577436531519391e-008,-3.891726761930545e-009
	-1.341955828418167e-003,-1.276323930059553e-005
	-1.351877649207133e-003,4.314335530240686e-006
	9.174609276834889e-006,-1.760098768744631e-005

 54	2.173246492985970e+002,0.000000000000000e+000
	-8.718299869875911e-001,1.781662806830578e+000
	8.744029429004083e-003,-1.780843620980341e-002
	4.039192512230654e-009,-8.080794552315290e-009
	1.587414160841328e-008,-4.167184023075946e-009
	-1.342371275157045e-003,-1.289708476094943e-005
	-1.351877119466515e-003,4.395356965675743e-006
	8.741383391346881e-006,-1.781279144410035e-005

 55	2.213306613226451e+002,0.000000000000000e+000
	-8.278757729580291e-001,1.801748445202615e+000
	8.305117443763548e-003,-1.800971892307200e-002
	3.841728711471576e-009,-8.172944924983487e-009
	1.596908194626349e-008,-4.450538290235015e-009
	-1.342792645609564e-003,-1.302092686495884e-005
	-1.351876581102450e-003,4.476378199494341e-006
	8.302298564637585e-006,-1.801404413786973e-005

 56	2.253366733466932e+002,0.000000000000000e+000
	-7.833504615068850e-001,1.820760139174109e+000
	7.860488326633379e-003,-1.820028984611935e-002
	3.641660275326000e-009,-8.260332878352102e-009
	1.605879748593496e-008,-4.741814332808892e-009
	-1.343219815355168e-003,-1.313459814283041e-005
	-1.351876033912291e-003,4.557399239524715e-006
	7.857496543055655e-006,-1.820457894999262e-005

 57	2.293426853707412e+002,0.000000000000000e+000
	-7.382688543948923e-001,1.838680352842138e+000
	7.410289075918101e-003,-1.837997380004162e-002
	3.439050099428065e-009,-8.342878706469773e-009
	1.614288911684391e-008,-5.041022691867229e-009
	-1.343652654827083e-003,-1.323792222400073e-005
	-1.351875477899725e-003,4.638420093261057e-006
	7.407124506031844e-006,-1.838422064310562e-005

 58	2.333486973947893e+002,0.000000000000000e+000
	-6.926463669173975e-001,1.855490719258033e+000
	6.954672797061721e-003,-1.854858727026300e-002
	3.233963822456124e-009,-8.420498877092324e-009
	1.622094738024216e-008,-5.348158969453965e-009
	-1.344091028364675e-003,-1.333071392140166e-005
	-1.351874913006508e-003,4.719440766178448e-006
	6.951335745581706e-006,-1.855278564653379e-005

 59	2.373547094188374e+002,0.000000000000000e+000
	-6.464991010129109e-001,1.871172048762889e+000
	6.493799432969583e-003,-1.870593848807062e-002
	3.026470150341771e-009,-8.493106060619866e-009
	1.629255241930102e-008,-5.663203034534424e-009
	-1.344534793588239e-003,-1.341277930637169e-005
	-1.351874339217296e-003,4.800461264386570e-006
	6.490290396762992e-006,-1.871008213821908e-005

 60	2.413607214428855e+002,0.000000000000000e+000
	-5.998439237795767e-001,1.885704337942856e+000
	6.027836548442025e-003,-1.885182751815947e-002
	2.816641205727096e-009,-8.560609161364701e-009
	1.635727396735335e-008,-5.986118144482892e-009
	-1.344983800498171e-003,-1.348391579304929e-005
	-1.351873756442480e-003,4.881481592013958e-006
	6.024156222454292e-006,-1.885591013243933e-005

 61	2.453667334669336e+002,0.000000000000000e+000
	-5.526985516515178e-001,1.899066780170301e+000
	5.556960171255288e-003,-1.898604636183541e-002
	2.604552903801622e-009,-8.622913355488157e-009
	1.641467138274806e-008,-6.316849981115897e-009
	-1.345437890772294e-003,-1.354391223169295e-005
	-1.351873164655572e-003,4.962501753526388e-006
	5.553109454586812e-006,-1.899006158349375e-005

 62	2.493727454909817e+002,0.000000000000000e+000
	-5.050816404374174e-001,1.911237778723436e+000
	5.081355691932137e-003,-1.910837908579295e-002
	2.390285355442170e-009,-8.679920140065755e-009
	1.646429373958576e-008,-6.655325600519983e-009
	-1.345896896835611e-003,-1.359254902932824e-005
	-1.351872563861561e-003,5.043521752291225e-006
	5.077335694289417e-006,-1.911232051476254e-005

 63	2.533787575150298e+002,0.000000000000000e+000
	-4.570128813669047e-001,1.922194963512038e+000
	4.601218823678459e-003,-1.921860198673184e-002
	2.173923298337523e-009,-8.731527397901310e-009
	1.650567998446931e-008,-7.001452296314428e-009
	-1.346360640725453e-003,-1.362959830216742e-005
	-1.351871953920920e-003,5.124541591010182e-006
	4.597030871942317e-006,-1.922246318381783e-005

 64	2.573847695390779e+002,0.000000000000000e+000
	-4.085131032246145e-001,1.931915212477940e+000
	4.116756623308303e-003,-1.931648380249120e-002
	1.955556556497233e-009,-8.777629482900412e-009
	1.653835917030217e-008,-7.355116376536332e-009
	-1.346828933473700e-003,-1.365482407160270e-005
	-1.351871334951952e-003,5.205561272925103e-006
	4.112402268460682e-006,-1.932025829402459e-005

 65	2.613907815631260e+002,0.000000000000000e+000
	-3.596043805756725e-001,1.940374678785454e+000
	3.628188573220738e-003,-1.940178598084309e-002
	1.735280528213730e-009,-8.818117331029581e-009
	1.656185077909475e-008,-7.716181855056105e-009
	-1.347301573539207e-003,-1.366798251835966e-005
	-1.351870706844953e-003,5.286580800126138e-006
	3.623669597428643e-006,-1.940546726385047e-005

 66	2.653967935871741e+002,0.000000000000000e+000
	-3.103101479982228e-001,1.947548824965916e+000
	3.135747723614082e-003,-1.947426301758192e-002
	1.513196702161502e-009,-8.852878602115375e-009
	1.657566514666981e-008,-8.084489059333206e-009
	-1.347778345963916e-003,-1.366882230128896e-005
	-1.351870069561095e-003,5.367600174062382e-006
	3.131066147570641e-006,-1.947784456560358e-005

 67	2.694028056112222e+002,0.000000000000000e+000
	-2.606553201375323e-001,1.953412465231689e+000
	2.639681893114535e-003,-1.953366287605671e-002
	1.289413200872970e-009,-8.881797857977989e-009
	1.657930400308994e-008,-8.459853157425342e-009
	-1.348259021118025e-003,-1.365708495474562e-005
	-1.351869423079913e-003,5.448619396338902e-006
	2.634839983558099e-006,-1.953713814539947e-005

 68	2.734088176352703e+002,0.000000000000000e+000
	-2.106664172800474e-001,1.957939817224891e+000
	2.140254924838185e-003,-1.957972750079731e-002
	1.064045350317400e-009,-8.904756782629280e-009
	1.657226114352644e-008,-8.842062608481406e-009
	-1.348743353466305e-003,-1.363250537824027e-005
	-1.351868767424825e-003,5.529638468736055e-006
	2.135255202248925e-006,-1.958308993762333e-005

 69	2.774148296593185e+002,0.000000000000000e+000
	-1.603716960138392e-001,1.961104564513187e+000
	1.637747993588816e-003,-1.961219343835848e-002
	8.372162737239934e-010,-8.921634450490246e-009
	1.655402324513367e-008,-9.230877542494467e-009
	-1.349231080173720e-003,-1.359481243154066e-005
	-1.351868102580939e-003,5.610657392271319e-006
	1.632593240031284e-006,-1.961543648654616e-005

 70	2.814208416833666e+002,0.000000000000000e+000
	-1.098012843925785e-001,1.962879931186471e+000
	1.132460958403922e-003,-1.963079257892304e-002
	6.090575071256316e-010,-8.932307648783803e-009
	1.652407084625047e-008,-9.626028076881467e-009
	-1.349721919659796e-003,-1.354372964726331e-005
	-1.351867428409170e-003,5.691676166980513e-006
	1.127154225454548e-006,-1.963390968853468e-005

 71	2.854268537074147e+002,0.000000000000000e+000
	-5.898732085265351e-002,1.963238769940754e+000
	6.247137529893043e-004,-1.963525303253710e-002
	3.797096333517238e-010,-8.936651260422341e-009
	1.648187950488746e-008,-1.002721257950189e-008
	-1.350215570588828e-003,-1.347897607263423e-005
	-1.351866745036769e-003,5.772694794409444e-006
	6.192583697339013e-007,-1.963823766938078e-005

 72	2.894328657314628e+002,0.000000000000000e+000
	-7.964095946562185e-003,1.962153665056249e+000
	1.148478047201549e-004,-1.962530015405884e-002
	1.493229303632407e-010,-8.934538713819785e-009
	1.642692115393070e-008,-1.043409589003786e-008
	-1.350711709990743e-003,-1.340026726297668e-005
	-1.351866052410203e-003,5.853713274553612e-006
	1.092473857279810e-007,-1.962814580991390e-005

 73	2.934388777555109e+002,0.000000000000000e+000
	4.323180425019464e-002,1.959597051681084e+000
	-3.967725291696099e-004,-1.960065773095482e-002
	-8.194197110150153e-011,-8.925842506099575e-009
	1.635866567075610e-008,-1.084630751423947e-008
	-1.351209991956112e-003,-1.330731643116517e-005
	-1.351865350442985e-003,5.934731607257117e-006
	-4.025140759323141e-007,-1.960335793505489e-005

 74	2.974448897795591e+002,0.000000000000000e+000
	9.456135442680917e-002,1.955541352816256e+000
	-9.097585218396109e-004,-1.956104934792437e-002
	-3.139134266163412e-010,-8.910434806119836e-009
	1.627658267894265e-008,-1.126343980838843e-008
	-1.351710046334110e-003,-1.319983577193776e-005
	-1.351864639174166e-003,6.015749793365161e-006
	-9.156369872451141e-007,-1.956359767918902e-005

 75	3.014509018036072e+002,0.000000000000000e+000
	1.459829476313418e-001,1.949959135356889e+000
	-1.423695649602597e-003,-1.950619994193569e-002
	-5.464081210386066e-010,-8.888188143579210e-009
	1.618014359944804e-008,-1.168504617444612e-008
	-1.352211477133601e-003,-1.307753797803982e-005
	-1.351863918622105e-003,6.096767832361540e-006
	-1.429706515837350e-006,-1.950859004254011e-005

 76	3.054569138276553e+002,0.000000000000000e+000
	1.974522560445754e-001,1.942823286474228e+000
	-1.938142195869978e-003,-1.943583756055723e-002
	-7.792304236915518e-010,-8.858976190173980e-009
	1.606882396789216e-008,-1.211063928970987e-008