Title: * spicenetlist
Date: Sat May 18 14:43:34  2019
Plotname: AC Analysis
Flags: complex
No. Variables: 8
No. Points: 500
Variables:
	0	frequency	frequency
	1	v(n_12)	voltage
	2	v(n_27)	voltage
	3	v(n_26)	voltage
	4	v(n_28)	voltage
	5	i(i(v_v1))	current
	6	i(i(v_g3))	current
	7	i(i(v_g4))	current
Values:
 0	1.000000000000000e+000,0.000000000000000e+000
	1.966109232911642e-002,-2.906235989149660e-003
	-1.966502914739995e-004,2.906693428124833e-005
	-9.103845731884614e-011,1.350205815734526e-011
	-1.091700129840484e-010,1.560658431823402e-011
	-1.351696372286193e-003,-7.417154404518482e-009
	-1.969034783538834e-007,2.907128701358041e-008
	-1.351894942563800e-003,2.189035379750011e-008

 1	5.006012024048096e+000,0.000000000000000e+000
	3.432669344265386e-001,-3.402390620969139e-001
	-3.433459074552454e-003,3.402962300496112e-003
	-1.585220383415234e-009,1.578679890062008e-009
	-1.949116841942620e-009,1.841763440822511e-009
	-1.351751840741603e-003,-2.905797675890991e-008
	-3.434159310190966e-006,3.403465621656250e-006
	-1.355223593683736e-003,3.403469652604930e-006

 2	9.012024048096192e+000,0.000000000000000e+000
	1.288916336622957e-001,-1.249359667399424e+000
	-1.289870900887532e-003,1.249601488812360e-002
	-5.729313460587641e-010,5.780566495205883e-009
	-1.013824625707793e-009,6.894016964377721e-009
	-1.351867575713349e-003,3.143990481454058e-008
	-1.290173644135633e-006,1.249781419593422e-005
	-1.353198060476419e-003,1.264851522541133e-005

 3	1.301803607214429e+001,0.000000000000000e+000
	-7.102678262243195e-001,-1.565750680985902e+000
	7.102830941089923e-003,1.566120054096405e-002
	3.319474655634421e-009,7.215461206144032e-009
	3.387313459011526e-009,8.917310807574585e-009
	-1.351925393155741e-003,1.695211667561498e-007
	7.103815869939329e-006,1.566335401414958e-005
	-1.344802726646547e-003,1.600843431277720e-005

 4	1.702404809619238e+001,0.000000000000000e+000
	-1.294025351545358e+000,-1.375922408483780e+000
	1.294138128525090e-002,1.376333154348435e-002
	6.009125595541046e-009,6.310225153063907e-009
	6.525350737788060e-009,8.203880229442164e-009
	-1.351930037996681e-003,2.937083678921877e-007
	1.294323064081210e-005,1.376509208284770e-005
	-1.338919153419494e-003,1.424700794855739e-005

 5	2.103006012024048e+001,0.000000000000000e+000
	-1.601870762765299e+000,-1.111150935346774e+000
	1.602045244153654e-002,1.111581144249351e-002
	7.414169116187396e-009,5.068829814022693e-009
	8.214119702709538e-009,7.053310115578288e-009
	-1.351923095356694e-003,3.967369345364518e-007
	1.602274193870226e-005,1.111708244581122e-005
	-1.335803531660508e-003,1.170464611414186e-005

 6	2.503607214428858e+001,0.000000000000000e+000
	-1.767774759401165e+000,-8.784193049468938e-001
	1.767990827965280e-002,8.788686271264759e-003
	8.161261336756480e-009,3.984215738620123e-009
	9.152340923944610e-009,6.057831770364216e-009
	-1.351916035406096e-003,4.889792045576242e-007
	1.768242224761936e-005,8.789523902255851e-006
	-1.334118498661277e-003,9.472474387564357e-006

 7	2.904208416833668e+001,0.000000000000000e+000
	-1.862962785803747e+000,-6.855765026282644e-001
	1.863210722535073e-002,6.860483998503164e-003
	8.582432668247226e-009,3.090123885451894e-009
	9.719868069621691e-009,5.268779609058218e-009
	-1.351910524019392e-003,5.761205158411892e-007
	1.863473775287112e-005,6.860952216379217e-006
	-1.333147787199430e-003,7.636372461944650e-006

 8	3.304809619238477e+001,0.000000000000000e+000
	-1.920291903438586e+000,-5.245971432018880e-001
	1.920567211349103e-002,5.250949398019853e-003
	8.830569739339352e-009,2.347512975218213e-009
	1.009361495301858e-008,4.646508835031196e-009
	-1.351906400773889e-003,6.607179546262577e-007
	1.920836034909880e-005,5.251098437517379e-006
	-1.332559875330801e-003,6.118427444404793e-006

 9	3.705410821643287e+001,0.000000000000000e+000
	-1.955639803587424e+000,-3.873918853748942e-001
	1.955940634909817e-002,3.879181194826365e-003
	8.979342173251008e-009,1.717606181635922e-009
	1.035944423740742e-008,4.148641337764221e-009
	-1.351903300954920e-003,7.439562097149227e-007
	1.956211695626440e-005,3.879048448031344e-006
	-1.332194221678423e-003,4.838452618781115e-006

 10	4.106012024048096e+001,0.000000000000000e+000
	-1.977256727715314e+000,-2.678916312599380e-001
	1.977582652797812e-002,2.684480934083368e-003
	9.066842623213608e-009,1.171378321145835e-009
	1.056197744903883e-008,3.742722501525364e-009
	-1.351900927838382e-003,8.264209308088713e-007
	1.977853632530865e-005,2.684094399140790e-006
	-1.331967282470831e-003,3.735922807034307e-006

 11	4.506613226452906e+001,0.000000000000000e+000
	-1.989733333796047e+000,-1.617813464513549e-001
	1.990084724465089e-002,1.623692264653877e-003
	9.114112590375305e-009,6.882083306974165e-010
	1.072594749524096e-008,3.405374857401626e-009
	-1.351899071002845e-003,9.084209821954965e-007
	1.990353979521627e-005,1.623073366563312e-006
	-1.331832520744325e-003,2.767672699828017e-006

 12	4.907214428857716e+001,0.000000000000000e+000
	-1.995779265299785e+000,-6.599922776642639e-002
	1.996156967313649e-002,6.661924842401899e-004
	9.133453094331540e-009,2.534779363487464e-010
	1.086583949512192e-008,3.119837223974413e-009
	-1.351897585544268e-003,9.901288720281602e-007
	1.996423251962806e-005,6.653580462797823e-007
	-1.331762446259607e-003,1.903013094781031e-006

 13	5.307815631262525e+001,0.000000000000000e+000
	-1.997075694121255e+000,2.165577172208916e-002
	1.997480843092440e-002,-2.100325232648572e-004
	9.132408747500625e-009,-1.433051544197328e-010
	1.099053507295535e-008,2.873944532840947e-009
	-1.351896371151270e-003,1.071645831371067e-006
	1.997743159161345e-005,-2.110689416715197e-007
	-1.331739993548304e-003,1.119850385703189e-006

 14	5.708416833667335e+001,0.000000000000000e+000
	-1.994710654503439e+000,1.027933389588989e-001
	1.995144567049994e-002,-1.021082524133466e-003
	9.115799606092051e-009,-5.097973381537318e-010
	1.110569043674778e-008,2.658712165873325e-009
	-1.351895357656439e-003,1.153033836627324e-006
	1.995402077579261e-005,-1.022309715434282e-006
	-1.331754114727768e-003,4.020079576000881e-007

 15	6.109018036072145e+001,0.000000000000000e+000
	-1.989414140355113e+000,1.786115121447019e-001
	1.989878246743021e-002,-1.778940251645514e-003
	9.086815201401095e-009,-8.516814626301337e-010
	1.121502138067995e-008,2.467379704907341e-009
	-1.351894495072258e-003,1.234332241664077e-006
	1.990130224131510e-005,-1.780348728909917e-006
	-1.331797396937559e-003,-2.625662895512679e-007

 16	6.509619238476954e+001,0.000000000000000e+000
	-1.981691405670847e+000,2.500168083150887e-001
	1.982187206388936e-002,-2.492672828029182e-003
	9.047631904055937e-009,-1.173244211151259e-009
	1.132103081117482e-008,2.294766394777749e-009
	-1.351893747109077e-003,1.315566838247910e-006
	1.982433000004323e-005,-2.494254379904830e-006
	-1.331864710424394e-003,-8.830005544304017e-007

 17	6.910220440881763e+001,0.000000000000000e+000
	-1.971901809180531e+000,3.177055576173525e-001
	1.972430845874446e-002,-3.169245210689832e-003
	8.999775728183545e-009,-1.477767390105973e-009
	1.142543764949405e-008,2.136832304247825e-009
	-1.351893087166448e-003,1.396755003257340e-006
	1.972669861175140e-005,-3.170992581741884e-006
	-1.331952408650772e-003,-1.466313196060243e-006

 18	7.310821643286572e+001,0.000000000000000e+000
	-1.960307196423243e+000,3.822198903175951e-001
	1.960871031747831e-002,-3.814080135785356e-003
	8.944343200729549e-009,-1.767797304525549e-009
	1.152943875636247e-008,1.990375159469570e-009
	-1.351892495285893e-003,1.477908731505357e-006
	1.961102716423855e-005,-3.815986792790264e-006
	-1.332057836817555e-003,-2.017973699922360e-006

 19	7.711422845691381e+001,0.000000000000000e+000
	-1.947102559150571e+000,4.439869527898651e-001
	1.947702762333098e-002,-4.431450330816458e-003
	8.882140052331809e-009,-2.045333317828977e-009
	1.163387391257489e-008,1.852817552542313e-009
	-1.351891956220786e-003,1.559036482699717e-006
	1.947926596906530e-005,-4.433510289100691e-006
	-1.332179020391778e-003,-2.542295930889269e-006

 20	8.112024048096190e+001,0.000000000000000e+000
	-1.932436021440513e+000,5.033468490927123e-001
	1.933074157600937e-002,-5.024757968603616e-003
	8.813770723524418e-009,-2.311962023606007e-009
	1.173933262065192e-008,1.722055195877222e-009
	-1.351891458400160e-003,1.640144338977842e-006
	1.933289648926972e-005,-5.026965661015132e-006
	-1.332314462270473e-003,-3.042718512189040e-006

 21	8.512625250500999e+001,0.000000000000000e+000
	-1.916422198376046e+000,5.605728747194174e-001
	1.917099820379245e-002,-5.596737032827683e-003
	8.739697555329344e-009,-2.568954223542737e-009
	1.184622495074601e-008,1.596347046199280e-009
	-1.351890992741438e-003,1.721236748380948e-006
	1.917306497060467e-005,-5.599087209569099e-006
	-1.332463006699060e-003,-3.522007969389836e-006

 22	8.913226452905808e+001,0.000000000000000e+000
	-1.899151326069402e+000,6.158863924633321e-001
	1.899869968121004e-002,-6.149602097500172e-003
	8.660280797673328e-009,-2.817336061700261e-009
	1.195482957442693e-008,1.474234591695620e-009
	-1.351890552080851e-003,1.802317014751621e-006
	1.900067377258279e-005,-6.152089748605072e-006
	-1.332623746499147e-003,-3.982408146446338e-006

 23	9.313827655310617e+001,0.000000000000000e+000
	-1.880695627186608e+000,6.694679240058750e-001
	1.881456799652970e-002,-6.685159258473338e-003
	8.575806190716805e-009,-3.057941924114115e-009
	1.206532697982756e-008,1.354481758337156e-009
	-1.351890130743592e-003,1.883387626925890e-006
	1.881644504513768e-005,-6.687779553126147e-006
	-1.332795958347548e-003,-4.425751651871092e-006

 24	9.714428857715426e+001,0.000000000000000e+000
	-1.861113829260000e+000,7.214655280907628e-001
	1.861919014362854e-002,-7.204889927042177e-003
	8.486504321898552e-009,-3.291454283740780e-009
	1.217782285301047e-008,1.236029604216338e-009
	-1.351889724137863e-003,1.964450483435903e-006
	1.862096592686758e-005,-7.207638165669163e-006
	-1.332979056729923e-003,-4.853544067009755e-006

 25	1.011503006012024e+002,0.000000000000000e+000
	-1.840454424135788e+000,7.720012054519678e-001
	1.841305072281686e-002,-7.710014888311356e-003
	8.392564433673194e-009,-3.518434070209778e-009
	1.229236480556260e-008,1.117961763884802e-009
	-1.351889328607790e-003,2.045507049627149e-006
	1.841472115066017e-005,-7.712886464356327e-006
	-1.333172560864400e-003,-5.267028336825762e-006

 26	1.051563126252504e+002,0.000000000000000e+000
	-1.818758054042327e+000,8.211758497160090e-001
	1.819655580619369e-002,-8.201543817243077e-003
	8.294144420090342e-009,-3.739344073313720e-009
	1.240895451934768e-008,9.994778070796053e-010
	-1.351888941066650e-003,2.126558468532849e-006
	1.819811691247144e-005,-8.204534186490587e-006
	-1.333376070224321e-003,-5.667234553592233e-006

 27	1.091623246492985e+002,0.000000000000000e+000
	-1.796059281790214e+000,8.690731136237299e-001
	1.797005064312960e-002,-8.680313946350117e-003
	8.191378163215237e-009,-3.954567162693405e-009
	1.252755668273454e-008,8.798724939953985e-010
	-1.351888559071681e-003,2.207605640510063e-006
	1.797149857930193e-005,-8.683418602134329e-006
	-1.333589246721448e-003,-6.055018840327957e-006

 28	1.131683366733466e+002,0.000000000000000e+000
	-1.772387920197947e+000,9.157624567669538e-001
	1.773383295714603e-002,-9.147020547360366e-003
	8.084380984959445e-009,-4.164420606265637e-009
	1.264810564622427e-008,7.585194730841470e-010
	-1.351888180524672e-003,2.288649281669206e-006
	1.773516398800732e-005,-9.150235000354673e-006
	-1.333811800965934e-003,-6.431094006490700e-006

 29	1.171743486973947e+002,0.000000000000000e+000
	-1.747770041747216e+000,9.613015690604269e-001
	1.748816304445981e-002,-9.602241169331588e-003
	7.973253745379528e-009,-4.369167421346760e-009
	1.277051043403256e-008,6.348583612172605e-010
	-1.351887803732413e-003,2.369689965318227e-006
	1.748937354530911e-005,-9.605560931090385e-006
	-1.334043482115274e-003,-6.796053929095432e-006

 30	1.211803607214428e+002,0.000000000000000e+000
	-1.722228753352747e+000,1.005738313291273e+000
	1.723327152320380e-002,-1.004645506684272e-002
	7.858085956534295e-009,-4.569025446270607e-009
	1.289465855475238e-008,5.083844246092358e-010
	-1.351887427176062e-003,2.450728154958335e-006
	1.723435797811967e-005,-1.004987563628600e-005
	-1.334284069804157e-003,-7.150393095385186e-006

 31	1.251863727454909e+002,0.000000000000000e+000
	-1.695784796625337e+000,1.049112293680756e+000
	1.696936533722377e-002,-1.048005888776260e-002
	7.738958172007433e-009,-4.764174644405027e-009
	1.302041892377878e-008,3.786402782626290e-010
	-1.351887049682785e-003,2.531764227674770e-006
	1.697032433817068e-005,-1.048357574003183e-005
	-1.334533368238958e-003,-7.494522385985500e-006

 32	1.291923847695390e+002,0.000000000000000e+000
	-1.668457017132849e+000,1.091456131039437e+000
	1.669663244958113e-002,-1.090337942652224e-002
	7.615943837795158e-009,-4.954763025364728e-009
	1.314764412092273e-008,2.452091659741848e-010
	-1.351886670255594e-003,2.612798492139386e-006
	1.669746069623735e-005,-1.090698800375730e-005
	-1.334791201273483e-003,-7.828781906556275e-006

 33	1.331983967935871e+002,0.000000000000000e+000
	-1.640262734386339e+000,1.132796505813341e+000
	1.641524554309261e-002,-1.131668405595534e-002
	7.489110738766467e-009,-5.140911475389097e-009
	1.327617214473611e-008,1.077094884714830e-010
	-1.351886287958731e-003,2.693831203021275e-006
	1.641593984319666e-005,-1.132037975976767e-005
	-1.335057408542963e-003,-8.153451483953989e-006

 34	1.372044088176352e+002,0.000000000000000e+000
	-1.611218035953964e+000,1.173155016065068e+000
	1.612536496197689e-002,-1.172018930821309e-002
	7.358522138820479e-009,-5.322717720380883e-009
	1.340582778159705e-008,-3.420967478589581e-011
	-1.351885901968980e-003,2.774862571040282e-006
	1.612592223211506e-005,-1.172396749341118e-005
	-1.335331842530505e-003,-8.468759301908005e-006

 35	1.412104208416833e+002,0.000000000000000e+000
	-1.581338013151911e+000,1.212548886796632e+000
	1.582714106913185e-002,-1.211406796887340e-002
	7.224237687280122e-009,-5.500259594114588e-009
	1.353642367671347e-008,-1.808722464545094e-010
	-1.351885511720956e-003,2.855892771914706e-006
	1.582755833586731e-005,-1.211792393828093e-005
	-1.335614366317670e-003,-8.774889039922180e-006

 36	1.452164328657314e+002,0.000000000000000e+000
	-1.550636951457700e+000,1.250991559011454e+000
	1.552071615051976e-002,-1.249845496825792e-002
	7.086314145721368e-009,-5.673597745819770e-009
	1.366776117201535e-008,-3.325781873484503e-010
	-1.351885116633029e-003,2.936921952927616e-006
	1.552099055184112e-005,-1.250238396847998e-005
	-1.335904851373385e-003,-9.071985802877843e-006

 37	1.492224448897794e+002,0.000000000000000e+000
	-1.519128485647868e+000,1.288493180831034e+000
	1.520622596669777e-002,-1.287345229314367e-002
	6.944805976155388e-009,-5.842777892327352e-009
	1.379963095980891e-008,-4.896060069881086e-010
	-1.351884716130433e-003,3.017950237844156e-006
	1.520635475366517e-005,-1.287744951107103e-005
	-1.336203175996622e-003,-9.360161065635261e-006

 38	1.532284569138275e+002,0.000000000000000e+000
	-1.486825727345506e+000,1.325061018327276e+000
	1.488380102836105e-002,-1.323913309550175e-002
	6.799765821773666e-009,-6.007832697812252e-009
	1.393181358928614e-008,-6.522148425302568e-010
	-1.351884309902255e-003,3.098977731617174e-006
	1.488378156702111e-005,-1.324319365550130e-005
	-1.336509224272073e-003,-9.639496809087357e-006

 39	1.572344689378756e+002,0.000000000000000e+000
	-1.453741370939859e+000,1.360699800142384e+000
	1.455356765553024e-002,-1.359554513900088e-002
	6.651244904303306e-009,-6.168783347122652e-009
	1.406407985428248e-008,-8.206461803238764e-010
	-1.351883897480862e-003,3.180004522821672e-006
	1.455339742897617e-005,-1.359966410060381e-005
	-1.336822884567215e-003,-9.910048991666243e-006

 40	1.612404809619237e+002,0.000000000000000e+000
	-1.419887782548957e+000,1.395412007182146e+000
	1.421564886709986e-002,-1.394271369614642e-002
	6.499293356696904e-009,-6.325640865487776e-009
	1.419619108421457e-008,-9.951252790715962e-010
	-1.351883478595818e-003,3.261030687411293e-006
	1.421532547770627e-005,-1.394688605225691e-005
	-1.337144048975700e-003,-1.017185046637766e-005

 41	1.652464929859718e+002,0.000000000000000e+000
	-1.385277075721048e+000,1.429198116491252e+000
	1.387016513771087e-002,-1.428064398715245e-002
	6.343960505892456e-009,-6.478407227105820e-009
	1.432789935529626e-008,-1.175862341617744e-009
	-1.351883052894269e-003,3.342056289902880e-006
	1.386968630955527e-005,-1.428486466264508e-005
	-1.337472612261783e-003,-1.042491343903234e-005

 42	1.692525050100199e+002,0.000000000000000e+000
	-1.349921176828914e+000,1.462056806708304e+000
	1.351723505149156e-002,-1.460932323452908e-002
	6.185295117369950e-009,-6.627076287045008e-009
	1.445894763550396e-008,-1.363053472948434e-009
	-1.351882620170445e-003,3.423081385865730e-006
	1.351659863286010e-005,-1.461358708518405e-005
	-1.337808471418706e-003,-1.066923153840667e-005

 43	1.732585170340680e+002,0.000000000000000e+000
	-1.313831882543904e+000,1.493985131146080e+000
	1.315697587653825e-002,-1.492872239384547e-002
	6.023345610947820e-009,-6.771634564528750e-009
	1.458906987403354e-008,-1.556881454490366e-009
	-1.351882180179061e-003,3.504106023227738e-006
	1.315617984260041e-005,-1.493302420563084e-005
	-1.338151524891788e-003,-1.090478156159127e-005

 44	1.772645290581161e+002,0.000000000000000e+000
	-1.277020911340073e+000,1.524978663469156e+000
	1.278950407964214e-002,-1.523879761039171e-002
	5.858160255520052e-009,-6.912061900635147e-009
	1.471799104394206e-008,-1.757516358794280e-009
	-1.351881732676309e-003,3.585130242929360e-006
	1.278854653527200e-005,-1.524313209892551e-005
	-1.338501672090198e-003,-1.113152494416214e-005

 45	1.812705410821642e+002,0.000000000000000e+000
	-1.239499950640826e+000,1.555031620084880e+000
	1.241493579738773e-002,-1.553949144290037e-002
	5.689787349096114e-009,-7.048332009429984e-009
	1.484542714513188e-008,-1.965116023856614e-009
	-1.351881277541071e-003,3.666154080679250e-006
	1.241381498018815e-005,-1.554385325326722e-005
	-1.338858813023952e-003,-1.134940899476441e-005

 46	1.852765531062123e+002,0.000000000000000e+000
	-1.201280700958371e+000,1.584136962679404e+000
	1.203338727712791e-002,-1.583073388864322e-002
	5.518275389476702e-009,-7.180412938350727e-009
	1.497108517370495e-008,-2.179826402413819e-009
	-1.351880814616435e-003,3.747177567672602e-006
	1.203210156040236e-005,-1.583511759536791e-005
	-1.339222847692532e-003,-1.155836793081103e-005

 47	1.892825651302603e+002,0.000000000000000e+000
	-1.162374918170975e+000,1.612286483780964e+000
	1.164497529928664e-002,-1.611244323872250e-002
	5.343673240099041e-009,-7.308267451094151e-009
	1.509466306289137e-008,-2.401781798346840e-009
	-1.351880343669011e-003,3.828200730448095e-006
	1.164352319538498e-005,-1.611684334589617e-005
	-1.339593675611171e-003,-1.175832374405965e-005

 48	1.932885771543084e+002,0.000000000000000e+000
	-1.122794454922542e+000,1.639470877792026e+000
	1.124981759083684e-002,-1.638452678796963e-002
	5.166030294966743e-009,-7.431853344206206e-009
	1.521584960018944e-008,-2.631104999710838e-009
	-1.351879864646869e-003,3.909223592574427e-006
	1.124819775449077e-005,-1.638893772969100e-005
	-1.339971195645756e-003,-1.194918691784889e-005

 49	1.972945891783565e+002,0.000000000000000e+000
	-1.082551302001981e+000,1.665679799577443e+000
	1.084803323852969e-002,-1.664688142031788e-002
	4.985396646093235e-009,-7.551123706922581e-009
	1.533432432498135e-008,-2.867907315741991e-009
	-1.351879377431502e-003,3.990246174432201e-006
	1.084624447042873e-005,-1.665129756120726e-005
	-1.340355305343073e-003,-1.213085702081597e-005

 50	2.013006012024046e+002,0.000000000000000e+000
	-1.041657630459442e+000,1.690901912412038e+000
	1.043974310944848e-002,-1.689939408767718e-002
	4.801823256508641e-009,-7.666027132489880e-009
	1.544975741068929e-008,-3.112288523402230e-009
	-1.351878881877788e-003,4.071268493765371e-006
	1.043778435995611e-005,-1.690380972357336e-005
	-1.340745900542827e-003,-1.230322319222858e-005

 51	2.053066132264527e+002,0.000000000000000e+000
	-1.000125835135945e+000,1.715124926864239e+000
	1.002507028565545e-002,-1.714194219807074e-002
	4.615362141577676e-009,-7.776507888143480e-009
	1.556180953547246e-008,-3.364336727536069e-009
	-1.351878377904235e-003,4.152290566237328e-006
	1.002294065870946e-005,-1.714635155696522e-005
	-1.341142875026926e-003,-1.246616453566621e-005

 52	2.093126252505008e+002,0.000000000000000e+000
	-9.579685802178516e-001,1.738335632012618e+000
	9.604140519049429e-003,-1.737439392699417e-002
	4.426066561134725e-009,-7.882506050084290e-009
	1.567013174552444e-008,-3.624128137478570e-009
	-1.351877865464539e-003,4.233312405521947e-006
	9.601839276241375e-006,-1.737879117008566e-005
	-1.341546120030833e-003,-1.261955043539939e-005

 53	2.133186372745489e+002,0.000000000000000e+000
	-9.151988473739033e-001,1.760519920251120e+000
	9.177082712016189e-003,-1.759660846454709e-002
	4.233991224744420e-009,-7.983957609142656e-009
	1.577436531519395e-008,-3.891726761930536e-009
	-1.351877344411252e-003,4.314334023368751e-006
	9.174609276838441e-006,-1.760098768746372e-005
	-1.341955523622286e-003,-1.276324080746990e-005

 54	2.173246492985970e+002,0.000000000000000e+000
	-8.718299869875922e-001,1.781662806830578e+000
	8.744029429004091e-003,-1.780843620980338e-002
	4.039192512230653e-009,-8.080794552315275e-009
	1.587414160841326e-008,-4.167184023075930e-009
	-1.351876814737143e-003,4.395355430719722e-006
	8.741383391349052e-006,-1.781279144411657e-005
	-1.342370970427674e-003,-1.289708629590667e-005

 55	2.213306613226451e+002,0.000000000000000e+000
	-8.278757729580355e-001,1.801748445202621e+000
	8.305117443763612e-003,-1.800971892307208e-002
	3.841728711471600e-009,-8.172944924983509e-009
	1.596908194626355e-008,-4.450538290235009e-009
	-1.351876276320728e-003,4.476376635893183e-006
	8.302298564642791e-006,-1.801404413788722e-005
	-1.342792340827845e-003,-1.302092842855511e-005

 56	2.253366733466932e+002,0.000000000000000e+000
	-7.833504615068899e-001,1.820760139174112e+000
	7.860488326633429e-003,-1.820028984611937e-002
	3.641660275326019e-009,-8.260332878352102e-009
	1.605879748593498e-008,-4.741814332808865e-009
	-1.351875729142494e-003,4.557397647850575e-006
	7.857496543056661e-006,-1.820457894998922e-005
	-1.343219510585366e-003,-1.313459973449802e-005

 57	2.293426853707412e+002,0.000000000000000e+000
	-7.382688543948957e-001,1.838680352842143e+000
	7.410289075918139e-003,-1.837997380004167e-002
	3.439050099428075e-009,-8.342878706469782e-009
	1.614288911684394e-008,-5.041022691867224e-009
	-1.351875173106000e-003,4.638418473162472e-006
	7.407124506033363e-006,-1.838422064311871e-005
	-1.343652350033358e-003,-1.323792384409788e-005

 58	2.333486973947893e+002,0.000000000000000e+000
	-6.926463669174042e-001,1.855490719258040e+000
	6.954672797061781e-003,-1.854858727026305e-002
	3.233963822456148e-009,-8.420498877092334e-009
	1.622094738024220e-008,-5.348158969453943e-009
	-1.351874608236656e-003,4.719439117832308e-006
	6.951335745580408e-006,-1.855278564654399e-005
	-1.344090723594821e-003,-1.333071556974994e-005

 59	2.373547094188374e+002,0.000000000000000e+000
	-6.464991010129162e-001,1.871172048762894e+000
	6.493799432969633e-003,-1.870593848807067e-002
	3.026470150341793e-009,-8.493106060619886e-009
	1.629255241930108e-008,-5.663203034534414e-009
	-1.351874034447417e-003,4.800459587812416e-006
	6.490290396766138e-006,-1.871008213821699e-005
	-1.344534488818361e-003,-1.341278098294581e-005

 60	2.413607214428855e+002,0.000000000000000e+000
	-5.998439237795804e-001,1.885704337942861e+000
	6.027836548442063e-003,-1.885182751815952e-002
	2.816641205727107e-009,-8.560609161364711e-009
	1.635727396735337e-008,-5.986118144482885e-009
	-1.351873451673702e-003,4.881479887164392e-006
	6.024156222449334e-006,-1.885591013244868e-005
	-1.344983495729394e-003,-1.348391749789142e-005

 61	2.453667334669336e+002,0.000000000000000e+000
	-5.526985516515208e-001,1.899066780170305e+000
	5.556960171255319e-003,-1.898604636183545e-002
	2.604552903801633e-009,-8.622913355488163e-009
	1.641467138274808e-008,-6.316849981115887e-009
	-1.351872859902106e-003,4.962500020237024e-006
	5.553109454590446e-006,-1.899006158349788e-005
	-1.345437586018828e-003,-1.354391396498977e-005

 62	2.493727454909817e+002,0.000000000000000e+000
	-5.050816404374253e-001,1.911237778723447e+000
	5.081355691932208e-003,-1.910837908579306e-002
	2.390285355442203e-009,-8.679920140065800e-009
	1.646429373958587e-008,-6.655325600519986e-009
	-1.351872259093854e-003,5.043519990664962e-006
	5.077335694287385e-006,-1.911232051476449e-005
	-1.345896592067904e-003,-1.359255079095527e-005

 63	2.533787575150298e+002,0.000000000000000e+000
	-4.570128813669092e-001,1.922194963512045e+000
	4.601218823678507e-003,-1.921860198673191e-002
	2.173923298337539e-009,-8.731527397901324e-009
	1.650567998446935e-008,-7.001452296314417e-009
	-1.351871649180476e-003,5.124539801316246e-006
	4.597030871943565e-006,-1.922246318380951e-005
	-1.346360335985010e-003,-1.362960009186560e-005

 64	2.573847695390779e+002,0.000000000000000e+000
	-4.085131032246241e-001,1.931915212477954e+000
	4.116756623308398e-003,-1.931648380249133e-002
	1.955556556497275e-009,-8.777629482900471e-009
	1.653835917030231e-008,-7.355116376536332e-009
	-1.351871030184186e-003,5.205559454791553e-006
	4.112402268457484e-006,-1.932025829400936e-005
	-1.346828628705935e-003,-1.365482588973301e-005

 65	2.613907815631260e+002,0.000000000000000e+000
	-3.596043805756786e-001,1.940374678785468e+000
	3.628188573220797e-003,-1.940178598084321e-002
	1.735280528213755e-009,-8.818117331029629e-009
	1.656185077909486e-008,-7.716181855056122e-009
	-1.351870402077156e-003,5.286578953544650e-006
	3.623669597429431e-006,-1.940546726385922e-005
	-1.347301268771410e-003,-1.366798436493971e-005

 66	2.653967935871741e+002,0.000000000000000e+000
	-3.103101479982260e-001,1.947548824965923e+000
	3.135747723614113e-003,-1.947426301758199e-002
	1.513196702161514e-009,-8.852878602115396e-009
	1.657566514666986e-008,-8.084489059333211e-009
	-1.351869764793267e-003,5.367598299254992e-006
	3.131066147571700e-006,-1.947784456559827e-005
	-1.347778041196086e-003,-1.366882417610008e-005

 67	2.694028056112222e+002,0.000000000000000e+000
	-2.606553201375340e-001,1.953412465231694e+000
	2.639681893114547e-003,-1.953366287605674e-002
	1.289413200872974e-009,-8.881797857977997e-009
	1.657930400308995e-008,-8.459853157425344e-009
	-1.351869118324004e-003,5.448617493403473e-006
	2.634839983557342e-006,-1.953713814539811e-005
	-1.348258716362115e-003,-1.365708685767963e-005

 68	2.734088176352703e+002,0.000000000000000e+000
	-2.106664172800498e-001,1.957939817224893e+000
	2.140254924838209e-003,-1.957972750079735e-002
	1.064045350317410e-009,-8.904756782629278e-009
	1.657226114352645e-008,-8.842062608481383e-009
	-1.351868462696175e-003,5.529636537621428e-006
	2.135255202248439e-006,-1.958308993763639e-005
	-1.348743048737654e-003,-1.363250730934562e-005

 69	2.774148296593185e+002,0.000000000000000e+000
	-1.603716960138422e-001,1.961104564513193e+000
	1.637747993588844e-003,-1.961219343835853e-002
	8.372162737240071e-010,-8.921634450490256e-009
	1.655402324513370e-008,-9.230877542494456e-009
	-1.351867797813014e-003,5.610655432564131e-006
	1.632593240030066e-006,-1.961543648653556e-005
	-1.349230775405794e-003,-1.359481439124403e-005

 70	2.814208416833666e+002,0.000000000000000e+000
	-1.098012843925812e-001,1.962879931186474e+000
	1.132460958403947e-003,-1.963079257892304e-002
	6.090575071256423e-010,-8.932307648783801e-009
	1.652407084625048e-008,-9.626028076881445e-009
	-1.351867123638952e-003,5.691674179144863e-006
	1.127154225455526e-006,-1.963390968855104e-005
	-1.349721614889578e-003,-1.354373163510469e-005

 71	2.854268537074147e+002,0.000000000000000e+000
	-5.898732085265359e-002,1.963238769940756e+000
	6.247137529893039e-004,-1.963525303253712e-002
	3.797096333517254e-010,-8.936651260422345e-009
	1.648187950488747e-008,-1.002721257950189e-008
	-1.351866440281858e-003,5.772692778297036e-006
	6.192583697342284e-007,-1.963823766938291e-005
	-1.350215265833918e-003,-1.347897808875198e-005

 72	2.894328657314628e+002,0.000000000000000e+000
	-7.964095946564765e-003,1.962153665056253e+000
	1.148478047201845e-004,-1.962530015405889e-002
	1.493229303632507e-010,-8.934538713819793e-009
	1.642692115393073e-008,-1.043409589003785e-008
	-1.351865747627966e-003,5.853711230002077e-006
	1.092473857280914e-007,-1.962814580992048e-005
	-1.350711405208507e-003,-1.340026930752207e-005

 73	2.934388777555109e+002,0.000000000000000e+000
	4.323180425019348e-002,1.959597051681085e+000
	-3.967725291695946e-004,-1.960065773095483e-002
	-8.194197110149574e-011,-8.925842506099573e-009
	1.635866567075610e-008,-1.084630751423946e-008
	-1.351865045699957e-003,5.934729534678718e-006
	-4.025140759320952e-007,-1.960335793504078e-005
	-1.351209687213083e-003,-1.330731850374704e-005

 74	2.974448897795591e+002,0.000000000000000e+000
	9.456135442680697e-002,1.955541352816262e+000
	-9.097585218395952e-004,-1.956104934792442e-002
	-3.139134266163304e-010,-8.910434806119839e-009
	1.627658267894267e-008,-1.126343980838841e-008
	-1.351864334432233e-003,6.015747692347619e-006
	-9.156369872450040e-007,-1.956359767919194e-005
	-1.351709741592177e-003,-1.319983787295205e-005

 75	3.014509018036072e+002,0.000000000000000e+000
	1.459829476313387e-001,1.949959135356897e+000
	-1.423695649602566e-003,-1.950619994193577e-002
	-5.464081210385917e-010,-8.888188143579243e-009
	1.618014359944812e-008,-1.168504617444613e-008
	-1.351863613868186e-003,6.096765702910081e-006
	-1.429706515837646e-006,-1.950859004254183e-005
	-1.352211172379682e-003,-1.307754010748397e-005

 76	3.054569138276553e+002,0.000000000000000e+000
	1.974522560445744e-001,1.942823286474234e+000
	-1.938142195869966e-003,-1.943583756055730e-002
	-7.792304236915443e-010,-8.858976190173998e-009
	1.606882396789221e-008,-1.211063928970988e-008